# vtk DataFile Version 2.0
Results formatted in VTK File Format
ASCII
DATASET STRUCTURED_GRID
DIMENSIONS 100 100 1
POINTS 10000 float
0.01 0.01 0
0.110909 0.01 0
0.211818 0.01 0
0.312727 0.01 0
0.413636 0.01 0
0.514545 0.01 0
0.615455 0.01 0
0.716364 0.01 0
0.817273 0.01 0
0.918182 0.01 0
1.01909 0.01 0
1.12 0.01 0
1.22091 0.01 0
1.32182 0.01 0
1.42273 0.01 0
1.52364 0.01 0
1.62455 0.01 0
1.72545 0.01 0
1.82636 0.01 0
1.92727 0.01 0
2.02818 0.01 0
2.12909 0.01 0
2.23 0.01 0
2.33091 0.01 0
2.43182 0.01 0
2.53273 0.01 0
2.63364 0.01 0
2.73455 0.01 0
2.83545 0.01 0
2.93636 0.01 0
3.03727 0.01 0
3.13818 0.01 0
3.23909 0.01 0
3.34 0.01 0
3.44091 0.01 0
3.54182 0.01 0
3.64273 0.01 0
3.74364 0.01 0
3.84455 0.01 0
3.94545 0.01 0
4.04636 0.01 0
4.14727 0.01 0
4.24818 0.01 0
4.34909 0.01 0
4.45 0.01 0
4.55091 0.01 0
4.65182 0.01 0
4.75273 0.01 0
4.85364 0.01 0
4.95455 0.01 0
5.05545 0.01 0
5.15636 0.01 0
5.25727 0.01 0
5.35818 0.01 0
5.45909 0.01 0
5.56 0.01 0
5.66091 0.01 0
5.76182 0.01 0
5.86273 0.01 0
5.96364 0.01 0
6.06455 0.01 0
6.16545 0.01 0
6.26636 0.01 0
6.36727 0.01 0
6.46818 0.01 0
6.56909 0.01 0
6.67 0.01 0
6.77091 0.01 0
6.87182 0.01 0
6.97273 0.01 0
7.07364 0.01 0
7.17455 0.01 0
7.27545 0.01 0
7.37636 0.01 0
7.47727 0.01 0
7.57818 0.01 0
7.67909 0.01 0
7.78 0.01 0
7.88091 0.01 0
7.98182 0.01 0
8.08273 0.01 0
8.18364 0.01 0
8.28455 0.01 0
8.38545 0.01 0
8.48636 0.01 0
8.58727 0.01 0
8.68818 0.01 0
8.78909 0.01 0
8.89 0.01 0
8.99091 0.01 0
9.09182 0.01 0
9.19273 0.01 0
9.29364 0.01 0
9.39455 0.01 0
9.49545 0.01 0
9.59636 0.01 0
9.69727 0.01 0
9.79818 0.01 0
9.89909 0.01 0
10 0.01 0
0.01 1.02 0
0.110909 1.02 0
0.211818 1.02 0
0.312727 1.02 0
0.413636 1.02 0
0.514545 1.02 0
0.615455 1.02 0
0.716364 1.02 0
0.817273 1.02 0
0.918182 1.02 0
1.01909 1.02 0
1.12 1.02 0
1.22091 1.02 0
1.32182 1.02 0
1.42273 1.02 0
1.52364 1.02 0
1.62455 1.02 0
1.72545 1.02 0
1.82636 1.02 0
1.92727 1.02 0
2.02818 1.02 0
2.12909 1.02 0
2.23 1.02 0
2.33091 1.02 0
2.43182 1.02 0
2.53273 1.02 0
2.63364 1.02 0
2.73455 1.02 0
2.83545 1.02 0
2.93636 1.02 0
3.03727 1.02 0
3.13818 1.02 0
3.23909 1.02 0
3.34 1.02 0
3.44091 1.02 0
3.54182 1.02 0
3.64273 1.02 0
3.74364 1.02 0
3.84455 1.02 0
3.94545 1.02 0
4.04636 1.02 0
4.14727 1.02 0
4.24818 1.02 0
4.34909 1.02 0
4.45 1.02 0
4.55091 1.02 0
4.65182 1.02 0
4.75273 1.02 0
4.85364 1.02 0
4.95455 1.02 0
5.05545 1.02 0
5.15636 1.02 0
5.25727 1.02 0
5.35818 1.02 0
5.45909 1.02 0
5.56 1.02 0
5.66091 1.02 0
5.76182 1.02 0
5.86273 1.02 0
5.96364 1.02 0
6.06455 1.02 0
6.16545 1.02 0
6.26636 1.02 0
6.36727 1.02 0
6.46818 1.02 0
6.56909 1.02 0
6.67 1.02 0
6.77091 1.02 0
6.87182 1.02 0
6.97273 1.02 0
7.07364 1.02 0
7.17455 1.02 0
7.27545 1.02 0
7.37636 1.02 0
7.47727 1.02 0
7.57818 1.02 0
7.67909 1.02 0
7.78 1.02 0
7.88091 1.02 0
7.98182 1.02 0
8.08273 1.02 0
8.18364 1.02 0
8.28455 1.02 0
8.38545 1.02 0
8.48636 1.02 0
8.58727 1.02 0
8.68818 1.02 0
8.78909 1.02 0
8.89 1.02 0
8.99091 1.02 0
9.09182 1.02 0
9.19273 1.02 0
9.29364 1.02 0
9.39455 1.02 0
9.49545 1.02 0
9.59636 1.02 0
9.69727 1.02 0
9.79818 1.02 0
9.89909 1.02 0
10 1.02 0
0.01 2.03 0
0.110909 2.03 0
0.211818 2.03 0
0.312727 2.03 0
0.413636 2.03 0
0.514545 2.03 0
0.615455 2.03 0
0.716364 2.03 0
0.817273 2.03 0
0.918182 2.03 0
1.01909 2.03 0
1.12 2.03 0
1.22091 2.03 0
1.32182 2.03 0
1.42273 2.03 0
1.52364 2.03 0
1.62455 2.03 0
1.72545 2.03 0
1.82636 2.03 0
1.92727 2.03 0
2.02818 2.03 0
2.12909 2.03 0
2.23 2.03 0
2.33091 2.03 0
2.43182 2.03 0
2.53273 2.03 0
2.63364 2.03 0
2.73455 2.03 0
2.83545 2.03 0
2.93636 2.03 0
3.03727 2.03 0
3.13818 2.03 0
3.23909 2.03 0
3.34 2.03 0
3.44091 2.03 0
3.54182 2.03 0
3.64273 2.03 0
3.74364 2.03 0
3.84455 2.03 0
3.94545 2.03 0
4.04636 2.03 0
4.14727 2.03 0
4.24818 2.03 0
4.34909 2.03 0
4.45 2.03 0
4.55091 2.03 0
4.65182 2.03 0
4.75273 2.03 0
4.85364 2.03 0
4.95455 2.03 0
5.05545 2.03 0
5.15636 2.03 0
5.25727 2.03 0
5.35818 2.03 0
5.45909 2.03 0
5.56 2.03 0
5.66091 2.03 0
5.76182 2.03 0
5.86273 2.03 0
5.96364 2.03 0
6.06455 2.03 0
6.16545 2.03 0
6.26636 2.03 0
6.36727 2.03 0
6.46818 2.03 0
6.56909 2.03 0
6.67 2.03 0
6.77091 2.03 0
6.87182 2.03 0
6.97273 2.03 0
7.07364 2.03 0
7.17455 2.03 0
7.27545 2.03 0
7.37636 2.03 0
7.47727 2.03 0
7.57818 2.03 0
7.67909 2.03 0
7.78 2.03 0
7.88091 2.03 0
7.98182 2.03 0
8.08273 2.03 0
8.18364 2.03 0
8.28455 2.03 0
8.38545 2.03 0
8.48636 2.03 0
8.58727 2.03 0
8.68818 2.03 0
8.78909 2.03 0
8.89 2.03 0
8.99091 2.03 0
9.09182 2.03 0
9.19273 2.03 0
9.29364 2.03 0
9.39455 2.03 0
9.49545 2.03 0
9.59636 2.03 0
9.69727 2.03 0
9.79818 2.03 0
9.89909 2.03 0
10 2.03 0
0.01 3.04 0
0.110909 3.04 0
0.211818 3.04 0
0.312727 3.04 0
0.413636 3.04 0
0.514545 3.04 0
0.615455 3.04 0
0.716364 3.04 0
0.817273 3.04 0
0.918182 3.04 0
1.01909 3.04 0
1.12 3.04 0
1.22091 3.04 0
1.32182 3.04 0
1.42273 3.04 0
1.52364 3.04 0
1.62455 3.04 0
1.72545 3.04 0
1.82636 3.04 0
1.92727 3.04 0
2.02818 3.04 0
2.12909 3.04 0
2.23 3.04 0
2.33091 3.04 0
2.43182 3.04 0
2.53273 3.04 0
2.63364 3.04 0
2.73455 3.04 0
2.83545 3.04 0
2.93636 3.04 0
3.03727 3.04 0
3.13818 3.04 0
3.23909 3.04 0
3.34 3.04 0
3.44091 3.04 0
3.54182 3.04 0
3.64273 3.04 0
3.74364 3.04 0
3.84455 3.04 0
3.94545 3.04 0
4.04636 3.04 0
4.14727 3.04 0
4.24818 3.04 0
4.34909 3.04 0
4.45 3.04 0
4.55091 3.04 0
4.65182 3.04 0
4.75273 3.04 0
4.85364 3.04 0
4.95455 3.04 0
5.05545 3.04 0
5.15636 3.04 0
5.25727 3.04 0
5.35818 3.04 0
5.45909 3.04 0
5.56 3.04 0
5.66091 3.04 0
5.76182 3.04 0
5.86273 3.04 0
5.96364 3.04 0
6.06455 3.04 0
6.16545 3.04 0
6.26636 3.04 0
6.36727 3.04 0
6.46818 3.04 0
6.56909 3.04 0
6.67 3.04 0
6.77091 3.04 0
6.87182 3.04 0
6.97273 3.04 0
7.07364 3.04 0
7.17455 3.04 0
7.27545 3.04 0
7.37636 3.04 0
7.47727 3.04 0
7.57818 3.04 0
7.67909 3.04 0
7.78 3.04 0
7.88091 3.04 0
7.98182 3.04 0
8.08273 3.04 0
8.18364 3.04 0
8.28455 3.04 0
8.38545 3.04 0
8.48636 3.04 0
8.58727 3.04 0
8.68818 3.04 0
8.78909 3.04 0
8.89 3.04 0
8.99091 3.04 0
9.09182 3.04 0
9.19273 3.04 0
9.29364 3.04 0
9.39455 3.04 0
9.49545 3.04 0
9.59636 3.04 0
9.69727 3.04 0
9.79818 3.04 0
9.89909 3.04 0
10 3.04 0
0.01 4.05 0
0.110909 4.05 0
0.211818 4.05 0
0.312727 4.05 0
0.413636 4.05 0
0.514545 4.05 0
0.615455 4.05 0
0.716364 4.05 0
0.817273 4.05 0
0.918182 4.05 0
1.01909 4.05 0
1.12 4.05 0
1.22091 4.05 0
1.32182 4.05 0
1.42273 4.05 0
1.52364 4.05 0
1.62455 4.05 0
1.72545 4.05 0
1.82636 4.05 0
1.92727 4.05 0
2.02818 4.05 0
2.12909 4.05 0
2.23 4.05 0
2.33091 4.05 0
2.43182 4.05 0
2.53273 4.05 0
2.63364 4.05 0
2.73455 4.05 0
2.83545 4.05 0
2.93636 4.05 0
3.03727 4.05 0
3.13818 4.05 0
3.23909 4.05 0
3.34 4.05 0
3.44091 4.05 0
3.54182 4.05 0
3.64273 4.05 0
3.74364 4.05 0
3.84455 4.05 0
3.94545 4.05 0
4.04636 4.05 0
4.14727 4.05 0
4.24818 4.05 0
4.34909 4.05 0
4.45 4.05 0
4.55091 4.05 0
4.65182 4.05 0
4.75273 4.05 0
4.85364 4.05 0
4.95455 4.05 0
5.05545 4.05 0
5.15636 4.05 0
5.25727 4.05 0
5.35818 4.05 0
5.45909 4.05 0
5.56 4.05 0
5.66091 4.05 0
5.76182 4.05 0
5.86273 4.05 0
5.96364 4.05 0
6.06455 4.05 0
6.16545 4.05 0
6.26636 4.05 0
6.36727 4.05 0
6.46818 4.05 0
6.56909 4.05 0
6.67 4.05 0
6.77091 4.05 0
6.87182 4.05 0
6.97273 4.05 0
7.07364 4.05 0
7.17455 4.05 0
7.27545 4.05 0
7.37636 4.05 0
7.47727 4.05 0
7.57818 4.05 0
7.67909 4.05 0
7.78 4.05 0
7.88091 4.05 0
7.98182 4.05 0
8.08273 4.05 0
8.18364 4.05 0
8.28455 4.05 0
8.38545 4.05 0
8.48636 4.05 0
8.58727 4.05 0
8.68818 4.05 0
8.78909 4.05 0
8.89 4.05 0
8.99091 4.05 0
9.09182 4.05 0
9.19273 4.05 0
9.29364 4.05 0
9.39455 4.05 0
9.49545 4.05 0
9.59636 4.05 0
9.69727 4.05 0
9.79818 4.05 0
9.89909 4.05 0
10 4.05 0
0.01 5.06 0
0.110909 5.06 0
0.211818 5.06 0
0.312727 5.06 0
0.413636 5.06 0
0.514545 5.06 0
0.615455 5.06 0
0.716364 5.06 0
0.817273 5.06 0
0.918182 5.06 0
1.01909 5.06 0
1.12 5.06 0
1.22091 5.06 0
1.32182 5.06 0
1.42273 5.06 0
1.52364 5.06 0
1.62455 5.06 0
1.72545 5.06 0
1.82636 5.06 0
1.92727 5.06 0
2.02818 5.06 0
2.12909 5.06 0
2.23 5.06 0
2.33091 5.06 0
2.43182 5.06 0
2.53273 5.06 0
2.63364 5.06 0
2.73455 5.06 0
2.83545 5.06 0
2.93636 5.06 0
3.03727 5.06 0
3.13818 5.06 0
3.23909 5.06 0
3.34 5.06 0
3.44091 5.06 0
3.54182 5.06 0
3.64273 5.06 0
3.74364 5.06 0
3.84455 5.06 0
3.94545 5.06 0
4.04636 5.06 0
4.14727 5.06 0
4.24818 5.06 0
4.34909 5.06 0
4.45 5.06 0
4.55091 5.06 0
4.65182 5.06 0
4.75273 5.06 0
4.85364 5.06 0
4.95455 5.06 0
5.05545 5.06 0
5.15636 5.06 0
5.25727 5.06 0
5.35818 5.06 0
5.45909 5.06 0
5.56 5.06 0
5.66091 5.06 0
5.76182 5.06 0
5.86273 5.06 0
5.96364 5.06 0
6.06455 5.06 0
6.16545 5.06 0
6.26636 5.06 0
6.36727 5.06 0
6.46818 5.06 0
6.56909 5.06 0
6.67 5.06 0
6.77091 5.06 0
6.87182 5.06 0
6.97273 5.06 0
7.07364 5.06 0
7.17455 5.06 0
7.27545 5.06 0
7.37636 5.06 0
7.47727 5.06 0
7.57818 5.06 0
7.67909 5.06 0
7.78 5.06 0
7.88091 5.06 0
7.98182 5.06 0
8.08273 5.06 0
8.18364 5.06 0
8.28455 5.06 0
8.38545 5.06 0
8.48636 5.06 0
8.58727 5.06 0
8.68818 5.06 0
8.78909 5.06 0
8.89 5.06 0
8.99091 5.06 0
9.09182 5.06 0
9.19273 5.06 0
9.29364 5.06 0
9.39455 5.06 0
9.49545 5.06 0
9.59636 5.06 0
9.69727 5.06 0
9.79818 5.06 0
9.89909 5.06 0
10 5.06 0
0.01 6.07 0
0.110909 6.07 0
0.211818 6.07 0
0.312727 6.07 0
0.413636 6.07 0
0.514545 6.07 0
0.615455 6.07 0
0.716364 6.07 0
0.817273 6.07 0
0.918182 6.07 0
1.01909 6.07 0
1.12 6.07 0
1.22091 6.07 0
1.32182 6.07 0
1.42273 6.07 0
1.52364 6.07 0
1.62455 6.07 0
1.72545 6.07 0
1.82636 6.07 0
1.92727 6.07 0
2.02818 6.07 0
2.12909 6.07 0
2.23 6.07 0
2.33091 6.07 0
2.43182 6.07 0
2.53273 6.07 0
2.63364 6.07 0
2.73455 6.07 0
2.83545 6.07 0
2.93636 6.07 0
3.03727 6.07 0
3.13818 6.07 0
3.23909 6.07 0
3.34 6.07 0
3.44091 6.07 0
3.54182 6.07 0
3.64273 6.07 0
3.74364 6.07 0
3.84455 6.07 0
3.94545 6.07 0
4.04636 6.07 0
4.14727 6.07 0
4.24818 6.07 0
4.34909 6.07 0
4.45 6.07 0
4.55091 6.07 0
4.65182 6.07 0
4.75273 6.07 0
4.85364 6.07 0
4.95455 6.07 0
5.05545 6.07 0
5.15636 6.07 0
5.25727 6.07 0
5.35818 6.07 0
5.45909 6.07 0
5.56 6.07 0
5.66091 6.07 0
5.76182 6.07 0
5.86273 6.07 0
5.96364 6.07 0
6.06455 6.07 0
6.16545 6.07 0
6.26636 6.07 0
6.36727 6.07 0
6.46818 6.07 0
6.56909 6.07 0
6.67 6.07 0
[...]
POINT_DATA 10000
SCALARS scalar1 float
LOOKUP_TABLE default
0.562983
0.792962
0.795293
0.795772
0.795946
0.796028
0.796073
0.796101
0.796119
0.796131
0.79614
0.796147
0.796152
0.796156
0.796159
0.796161
0.796163
0.796165
0.796166
0.796168
0.796169
0.79617
0.79617
0.796171
0.796172
0.796172
0.796173
0.796173
0.796173
0.796174
0.796174
0.796174
0.796175
0.796175
0.796175
0.796175
0.796175
0.796176
0.796176
0.796176
0.796176
0.796176
0.796176
0.796176
0.796176
0.796176
0.796177
0.796177
0.796177
0.796177
0.796177
0.796177
0.796177
0.796177
0.796177
0.796177
0.796177
0.796177
0.796177
0.796177
0.796177
0.796177
0.796177
0.796177
0.796177
0.796177
0.796177
0.796177
0.796178
0.796178
0.796178
0.796178
0.796178
0.796178
0.796178
0.796178
0.796178
0.796178
0.796178
0.796178
0.796178
0.796178
0.796178
0.796178
0.796178
0.796178
0.796178
0.796178
0.796178
0.796178
0.796178
0.796178
0.796178
0.796178
0.796178
0.796178
0.796178
0.796178
0.796178
0.796178
0.00780529
0.0708414
0.127065
0.177304
0.222294
0.262671
0.29899
0.331732
0.361317
0.388111
0.412431
0.434556
0.454729
0.473165
0.49005
0.505548
0.519806
0.532949
0.545091
0.556332
0.566759
0.576451
0.585477
0.5939
0.601775
0.60915
0.61607
0.622575
0.628699
0.634475
0.639932
0.645094
0.649986
0.654629
0.659041
0.663241
0.667244
0.671065
0.674716
0.67821
0.681558
0.68477
0.687855
0.690821
0.693678
0.696431
0.699087
0.701654
0.704136
0.706538
0.708867
0.711127
0.713321
0.715455
0.717531
0.719554
0.721526
0.723452
0.725333
0.727174
0.728976
0.730742
0.732475
0.734177
0.735851
0.737497
0.73912
0.740719
0.742299
0.74386
0.745404
0.746934
0.74845
0.749956
0.751452
0.752941
0.754424
0.755903
0.757379
0.758856
0.760334
0.761816
0.763304
0.7648
0.766305
0.767823
0.769355
0.770904
0.772474
0.774066
0.775684
0.777332
0.779012
0.780729
0.782486
0.78429
0.786144
0.788054
0.790027
0.792069
0.00392201
0.0312395
0.0582681
0.0848073
0.110708
0.135861
0.160193
0.183653
0.206215
0.227867
0.248609
0.268454
0.287421
0.305532
0.322818
0.339308
0.355035
0.370032
0.384335
0.397976
0.410988
0.423405
0.435257
0.446575
0.457387
0.467723
0.477608
0.487067
0.496124
0.504803
0.513123
0.521107
0.528771
0.536136
0.543217
0.55003
0.55659
0.562912
0.569009
0.574893
0.580576
0.58607
0.591384
0.596528
0.601512
0.606345
0.611035
0.615589
0.620015
0.62432
0.628511
0.632593
0.636573
0.640457
0.64425
0.647956
0.651582
0.655131
0.658608
0.662017
0.665362
0.668648
0.671877
0.675054
0.678183
0.681266
0.684306
0.687308
0.690274
0.693207
0.69611
0.698986
0.701838
0.704669
0.707482
0.710279
0.713063
0.715837
0.718603
0.721366
0.724126
0.726887
0.729652
0.732424
0.735205
0.737999
0.740808
0.743636
0.746486
0.749361
0.752264
0.755199
0.758169
0.761178
0.764229
0.767328
0.770476
0.773679
0.77694
0.780264
0.00261899
0.020585
0.0384942
0.0562981
0.0739513
0.0914127
0.108645
0.125616
0.142299
0.158668
0.174705
0.190395
0.205725
0.220687
0.235275
0.249486
0.26332
0.276776
0.289858
0.302571
0.314919
0.32691
0.338551
0.349849
0.360814
0.371454
0.38178
0.3918
0.401524
0.410962
0.420124
0.42902
0.437658
0.446049
0.454202
0.462126
0.46983
0.477322
0.484611
0.491705
0.498612
0.50534
0.511897
0.518289
0.524523
0.530607
0.536547
0.542348
0.548019
0.553563
0.558987
0.564296
0.569496
0.574592
0.579588
0.58449
0.589302
0.594029
0.598674
0.603243
0.607738
0.612165
0.616527
0.620827
0.62507
0.629259
0.633397
0.637488
0.641536
0.645542
0.649512
0.653447
0.65735
0.661226
0.665077
0.668905
0.672715
0.676508
0.680288
0.684057
0.687819
0.691576
0.695332
0.699089
0.702849
0.706617
0.710394
0.714185
0.71799
0.721815
0.725661
0.729532
0.733431
0.73736
0.741323
0.745323
0.749364
0.753447
0.757577
0.761757
0.00196587
0.0156285
0.0292702
0.042873
0.0564191
0.0698916
0.0832744
0.0965522
0.109711
0.122737
0.135619
0.148346
0.160908
0.173297
0.185505
0.197527
0.209356
0.220989
0.232422
0.243652
0.254679
0.265502
0.276119
0.286531
0.29674
0.306747
0.316553
0.326162
0.335575
0.344796
0.353828
0.362674
0.371339
0.379825
0.388138
0.396281
0.404258
0.412074
0.419733
0.427238
0.434596
0.441809
0.448883
0.455822
0.462629
0.469309
0.475867
0.482306
0.488631
0.494845
0.500953
0.506959
0.512866
0.518678
0.524399
0.530033
0.535582
0.541052
0.546444
0.551764
0.557013
0.562195
0.567314
0.572372
0.577373
0.58232
0.587215
0.592063
0.596865
0.601625
0.606345
0.611028
0.615678
0.620296
0.624886
0.62945
0.633991
0.638512
0.643015
0.647502
0.651977
0.656441
0.660899
0.665351
0.6698
0.67425
0.678702
0.68316
0.687625
0.6921
0.696588
0.701091
0.705611
0.710151
0.714714
0.719302
0.723918
0.728563
0.733241
0.737954
0.00157347
0.0127681
0.0239527
0.0351187
0.0462576
0.057361
0.0684208
0.0794292
0.0903787
0.101262
0.112072
0.122803
0.133448
0.144003
0.154461
0.164818
0.17507
0.185213
0.195243
0.205158
0.214954
0.224631
0.234185
0.243616
0.252922
0.262102
0.271157
0.280085
0.288888
0.297564
0.306116
0.314543
0.322847
0.331029
0.33909
0.347031
0.354855
0.362563
0.370157
0.377639
0.385012
0.392276
0.399434
0.40649
0.413444
0.4203
0.42706
0.433725
0.4403
0.446786
0.453185
0.4595
0.465735
0.47189
0.477969
0.483974
0.489908
0.495773
0.501572
0.507306
0.51298
0.518594
0.524151
0.529655
0.535106
0.540508
0.545863
0.551173
0.55644
0.561668
0.566857
0.57201
0.57713
0.582219
0.587278
0.592311
0.597319
0.602304
0.607269
0.612215
0.617146
0.622062
0.626965
0.631859
0.636745
0.641625
0.6465
0.651374
0.656248
0.661124
0.666003
0.670889
0.675782
0.680685
0.685599
0.690527
0.69547
0.700431
0.70541
0.71041
0.00131166
0.0109091
0.020501
0.0300827
0.0396494
0.0491965
0.0587196
0.068214
0.0776756
0.0871
0.0964832
0.105821
0.115111
0.124348
0.133529
0.142651
0.151711
0.160707
0.169635
0.178494
0.187281
0.195994
0.204631
0.213192
0.221673
0.230075
0.238397
0.246636
0.254794
0.262868
0.27086
0.278768
0.286593
0.294334
0.301993
0.309569
0.317062
0.324474
0.331805
0.339056
0.346227
0.35332
0.360336
0.367275
0.374139
0.380929
0.387646
0.394292
0.400868
0.407375
0.413815
0.42019
0.4265
0.432748
0.438934
0.445061
0.451131
0.457144
0.463102
0.469008
0.474862
0.480666
0.486423
0.492133
0.497799
0.503421
0.509003
0.514544
0.520048
0.525516
0.530949
0.536349
0.541717
0.547057
0.552368
0.557652
0.562912
0.568149
0.573364
0.578559
0.583736
0.588896
0.594041
0.599172
0.604291
0.609399
0.614498
0.619589
0.624675
0.629755
0.634832
0.639908
0.644982
0.650058
0.655136
0.660218
0.665304
0.670397
0.675497
0.680606
0.00112454
0.00960169
0.0180755
0.0265432
0.0350018
0.0434487
0.051881
0.060296
0.0686911
0.0770636
0.085411
0.0937309
0.102021
0.110278
0.118501
0.126688
0.134836
0.142943
0.151007
0.159028
0.167002
0.17493
0.182808
0.190637
0.198414
0.206139
0.213811
0.221428
0.228991
0.236498
0.243948
0.251342
0.258679
0.265959
0.273181
0.280345
0.287451
0.2945
0.301491
0.308425
0.315301
0.322121
0.328884
0.335592
0.342243
0.34884
0.355383
0.361872
0.368308
0.374692
0.381024
0.387306
0.393538
0.399721
0.405857
0.411945
0.417988
0.423985
0.429938
0.435849
0.441718
0.447545
0.453333
0.459083
0.464795
0.47047
0.476111
0.481717
0.48729
0.492831
0.498342
0.503823
0.509275
0.514701
0.5201
0.525474
0.530824
0.536152
0.541458
0.546744
0.55201
0.557258
0.562489
0.567704
0.572904
0.57809
0.583264
0.588425
0.593576
0.598717
0.60385
0.608974
0.614092
0.619204
0.624311
0.629414
0.634514
0.639611
0.644708
0.649803
0.000984151
0.0086271
0.0162679
0.0239048
0.0315358
0.0391593
0.0467735
0.0543765
0.0619667
0.0695423
0.0771017
0.0846433
0.0921654
0.0996664
0.107145
0.1146
0.122029
0.129431
0.136806
0.144151
0.151465
0.158748
0.165999
0.173215
0.180397
0.187544
0.194654
0.201727
0.208763
0.215759
0.222717
0.229636
0.236514
0.243352
0.25015
0.256906
0.263621
0.270295
0.276928
0.283518
0.290068
0.296575
0.303041
0.309466
0.31585
0.322193
0.328495
0.334756
0.340977
0.347159
0.353301
0.359404
0.365469
0.371495
0.377485
0.383437
0.389352
0.395232
0.401076
0.406886
0.412662
0.418404
0.424114
0.429791
0.435437
0.441053
0.446639
0.452195
0.457723
0.463223
0.468696
0.474143
0.479565
0.484962
0.490334
0.495684
0.501011
0.506316
0.511601
0.516865
0.52211
0.527335
0.532543
0.537734
0.542908
0.548066
0.553209
0.558338
0.563453
0.568554
0.573644
0.578721
0.583787
0.588843
0.593888
0.598924
0.603951
0.60897
0.613981
0.618984
0.000874921
0.0078667
0.014857
0.0218447
0.0288284
0.0358071
0.0427794
0.0497442
0.0567004
0.0636467
0.070582
0.0775051
0.0844151
0.0913107
0.0981909
0.105055
0.111901
0.118729
0.125538
0.132327
0.139094
0.14584
0.152563
0.159262
0.165938
0.172588
0.179213
0.185811
0.192383
0.198927
0.205444
0.211932
0.218392
0.224823
0.231224
0.237595
0.243936
0.250247
0.256528
0.262778
0.268997
0.275185
0.281342
0.287468
0.293562
0.299626
0.305659
0.311661
0.317632
0.323573
0.329482
0.335362
0.341211
0.347031
0.35282
0.358581
0.364312
0.370014
0.375687
0.381333
0.38695
0.392541
0.398104
0.40364
0.40915
0.414634
0.420092
0.425526
0.430935
0.436319
0.44168
0.447018
0.452333
0.457625
0.462896
0.468145
0.473374
0.478581
0.483769
0.488937
0.494086
0.499217
0.504329
0.509423
0.514501
0.519561
0.524605
0.529633
0.534645
0.539642
0.544624
0.549592
0.554546
0.559486
0.564413
0.569327
0.574228
0.579117
0.583993
0.588858
0.000787515
0.00725129
0.013714
0.0201749
0.026633
0.0330875
0.0395376
0.0459824
0.052421
0.0588528
0.0652767
0.0716921
0.0780981
0.0844939
0.0908789
0.0972522
0.103613
0.109961
0.116295
0.122615
0.128919
0.135208
0.14148
0.147736
0.153974
0.160193
0.166395
0.172577
0.178739
0.184882
0.191004
0.197105
0.203185
0.209244
0.215281
0.221295
0.227287
0.233256
0.239202
0.245125
0.251024
0.2569
0.262753
0.268581
0.274385
0.280166
0.285922
0.291654
0.297363
0.303047
0.308706
0.314342
0.319954
0.325542
0.331105
0.336646
0.342162
0.347655
0.353124
0.35857
0.363993
0.369393
0.374771
0.380126
0.385458
0.390768
0.396057
0.401324
0.406569
0.411793
0.416996
0.422179
0.42734
0.432482
0.437604
0.442706
0.447789
0.452852
0.457897
0.462923
0.46793
0.47292
0.477891
0.482845
0.487782
0.492701
0.497604
0.50249
0.507359
0.512213
0.51705
0.521871
0.526677
0.531468
0.536243
0.541003
0.545748
0.550478
0.555194
0.559895
0.000715987
0.00673827
0.0127598
0.01878
0.0247981
0.0308136
0.0368259
0.0428343
0.0488382
0.054837
0.0608301
0.0668169
0.0727969
0.0787693
0.0847338
0.0906897
0.0966364
0.102573
0.1085
0.114416
0.120321
0.126215
0.132096
0.137964
0.143819
0.149661
0.155489
0.161302
0.167101
0.172884
0.178652
0.184405
0.190141
0.19586
0.201563
0.207249
0.212917
0.218568
0.224201
0.229816
0.235413
0.240991
0.246551
0.252092
0.257614
0.263117
0.268601
0.274066
0.279511
0.284937
0.290344
0.295731
0.301098
0.306446
0.311774
0.317083
0.322372
0.327642
0.332892
0.338122
0.343333
0.348525
0.353697
0.35885
0.363983
0.369098
0.374194
0.37927
0.384328
0.389367
0.394387
0.399389
0.404372
0.409337
0.414284
0.419213
0.424124
0.429017
0.433892
0.43875
0.44359
0.448413
0.453219
0.458008
0.462779
0.467534
0.472272
0.476994
0.481698
0.486387
0.491059
0.495714
0.500354
0.504977
0.509584
0.514175
0.51875
0.523309
0.527853
0.53238
0.000656371
0.00630036
0.0119438
0.0175861
0.023227
0.0288659
0.0345022
0.0401357
0.0457657
0.0513919
0.0570138
0.0626308
0.0682427
0.0738488
0.0794489
0.0850424
0.0906289
0.096208
0.101779
0.107342
0.112897
0.118442
0.123979
0.129505
0.135021
0.140527
0.146022
0.151506
0.156978
0.162439
0.167887
0.173323
0.178746
0.184157
0.189554
0.194938
0.200308
0.205664
0.211006
0.216333
0.221646
0.226944
0.232228
0.237496
0.242749
0.247986
0.253208
0.258414
0.263604
0.268778
0.273936
0.279078
0.284204
0.289314
0.294407
0.299483
0.304544
0.309587
0.314614
0.319624
0.324618
0.329595
0.334555
0.339499
0.344425
0.349335
0.354229
0.359105
0.363965
0.368808
0.373635
0.378445
0.383238
0.388014
0.392774
0.397518
0.402245
0.406955
0.411649
0.416326
0.420987
0.425632
0.43026
0.434872
0.439468
0.444047
0.44861
0.453157
0.457688
0.462202
0.466701
0.471183
0.475649
0.480098
0.484532
0.488949
0.49335
0.497735
0.502104
0.506456
0.000605919
0.00591943
0.0112325
0.0165448
0.0218558
0.0271653
0.0324729
0.0377781
0.0430807
0.0483803
0.0536764
0.0589689
0.0642572
0.069541
0.07482
0.0800939
0.0853623
0.0906248
0.0958812
0.101131
0.106374
0.11161
0.116839
0.122059
0.127272
0.132476
0.137672
0.142859
0.148036
0.153205
0.158363
0.163511
0.16865
0.173777
0.178894
0.184001
0.189096
0.194179
0.199251
0.204312
0.20936
0.214396
0.21942
0.224431
0.22943
0.234416
0.239389
0.244348
0.249295
0.254228
0.259147
0.264053
0.268945
0.273824
0.278688
0.283538
0.288374
0.293196
0.298004
0.302797
0.307576
0.31234
0.317089
0.321824
0.326544
0.331249
0.335939
0.340615
0.345276
0.349921
0.354552
0.359167
0.363768
0.368353
0.372924
0.377479
0.382018
0.386543
0.391052
0.395547
0.400025
0.404489
0.408937
0.41337
0.417787
0.422189
0.426575
0.430946
0.435301
0.43964
0.443964
0.448273
0.452565
0.456842
0.461103
0.465349
0.469578
0.473791
0.477989
0.48217
0.00056267
0.00558313
0.0106032
0.0156227
0.0206412
0.0256584
0.0306741
0.0356879
0.0406995
0.0457087
0.0507152
0.0557186
0.0607187
0.0657152
0.0707078
0.0756962
0.0806802
0.0856594
0.0906336
0.0956025
0.100566
0.105523
0.110475
0.11542
0.120359
0.12529
0.130215
0.135132
0.140042
0.144944
0.149838
0.154724
0.159601
0.16447
0.16933
0.17418
0.179022
0.183854
0.188676
0.193488
0.198291
0.203083
0.207864
0.212636
0.217396
0.222146
0.226884
0.231612
0.236328
0.241032
0.245725
0.250407
0.255076
0.259733
0.264379
0.269012
0.273633
0.278241
0.282837
0.28742
0.291991
0.296548
0.301093
0.305625
0.310144
0.314649
0.319141
0.32362
0.328086
0.332538
0.336976
0.341401
0.345812
0.350209
0.354593
0.358963
0.363318
0.36766
0.371988
0.376301
0.3806
0.384885
0.389156
0.393412
0.397654
0.401881
0.406094
0.410292
0.414476
0.418644
0.422798
0.426937
0.431061
0.43517
0.439264
0.443342
0.447406
0.451454
0.455486
0.459503
0.000525183
0.00528277
0.0100401
0.0147968
0.0195528
0.0243077
0.0290613
0.0338134
0.0385637
0.0433119
0.0480579
0.0528014
0.0575421
0.0622798
0.0670143
0.0717453
0.0764726
0.081196
0.0859152
0.09063
0.0953401
0.100045
0.104746
0.109441
0.11413
0.118814
0.123491
0.128163
0.132828
0.137487
0.142139
0.146784
0.151422
0.156052
0.160675
0.16529
0.169898
0.174497
0.179088
0.18367
0.188245
0.19281
0.197366
0.201913
0.206452
0.21098
0.215499
0.220009
0.224509
0.228998
0.233478
0.237947
0.242406
0.246855
0.251293
0.25572
0.260136
0.264542
0.268936
0.273319
0.277691
0.282052
0.2864
0.290738
0.295063
0.299377
0.303679
0.307969
0.312247
0.316512
0.320765
0.325006
0.329235
0.333451
0.337654
0.341845
0.346023
0.350187
0.354339
0.358478
0.362604
0.366717
0.370816
0.374902
0.378975
0.383034
0.387079
0.391111
0.395129
0.399134
0.403124
0.4071
0.411063
0.415011
0.418945
0.422864
0.426769
0.43066
0.434536
0.438398
0.00049238
0.00501207
0.00953151
0.0140505
0.0185688
0.0230862
0.0276026
0.0321176
0.0366311
0.0411429
0.0456528
0.0501605
0.0546659
0.0591688
0.0636689
0.0681661
0.0726601
0.0771507
0.0816379
0.0861212
0.0906006
0.0950759
0.0995469
0.104013
0.108475
0.112932
0.117384
0.12183
0.126271
0.130706
0.135136
0.13956
0.143977
0.148388
0.152793
0.157191
0.161582
0.165966
0.170343
0.174713
0.179075
0.18343
0.187777
0.192116
0.196447
0.200769
0.205084
0.209389
0.213687
0.217975
0.222255
0.226525
0.230787
0.235039
0.239282
0.243515
0.247739
0.251952
0.256156
0.26035
0.264534
0.268708
0.272871
0.277024
0.281167
0.285298
0.289419
0.293529
0.297629
0.301717
0.305794
0.309859
0.313914
0.317957
0.321988
0.326008
0.330016
0.334013
0.337997
0.341969
0.34593
0.349878
0.353814
0.357738
0.361649
0.365548
0.369434
0.373307
0.377168
0.381016
0.384851
0.388673
0.392482
0.396277
0.40006
0.403829
0.407584
0.411326
0.415055
0.418769
0.000463433
0.00476636
0.00906908
0.0133714
0.0176731
0.0219741
0.0262742
0.0305731
0.0348707
0.0391668
0.0434613
0.047754
0.0520446
0.056333
0.0606191
0.0649026
0.0691833
0.0734612
0.077736
0.0820076
0.0862757
0.0905403
0.0948011
0.099058
0.103311
0.107559
0.111803
0.116043
0.120278
0.124508
0.128732
0.132952
0.137166
0.141375
0.145578
0.149775
0.153966
0.158151
0.16233
0.166503
0.170668
0.174828
0.17898
0.183125
0.187263
0.191394
0.195518
0.199634
0.203742
0.207843
0.211935
0.21602
0.220097
0.224165
0.228225
0.232276
0.236319
0.240353
0.244378
0.248394
0.252401
0.256399
0.260387
0.264366
0.268336
0.272296
0.276246
0.280187
0.284117
0.288038
0.291948
0.295848
0.299738
0.303617
0.307486
0.311344
0.315192
0.319029
0.322855
0.326669
0.330473
0.334266
0.338047
0.341817
0.345576
0.349323
0.353058
0.356782
0.360494
0.364194
0.367882
0.371558
0.375222
0.378874
0.382514
0.386141
0.389755
0.393357
0.396947
0.400524
0.000437701
0.00454209
0.0086463
0.0127502
0.0168535
0.0209562
0.0250581
0.029159
0.0332587
0.0373572
0.0414542
0.0455496
0.0496432
0.0537349
0.0578246
0.061912
0.065997
0.0700795
0.0741592
0.0782362
0.0823101
0.0863809
0.0904483
0.0945124
0.0985728
0.102629
0.106682
0.110731
0.114776
0.118816
0.122852
0.126883
0.130909
0.134931
0.138947
0.142959
0.146965
0.150965
0.15496
0.15895
0.162933
0.166911
0.170882
0.174848
0.178807
0.182759
0.186705
0.190644
0.194576
0.198502
0.20242
0.206331
0.210235
0.214131
0.21802
0.221901
0.225775
0.22964
0.233498
0.237347
0.241188
0.245021
0.248846
0.252662
0.256469
0.260268
0.264058
0.267839
0.271611
0.275373
0.279127
0.282871
0.286606
0.290332
0.294047
0.297753
0.30145
0.305136
0.308812
0.312479
0.316135
0.319781
0.323417
0.327042
0.330657
0.334261
0.337854
0.341437
0.345009
0.34857
0.35212
0.355659
0.359187
0.362703
0.366208
0.369702
0.373184
0.376655
0.380114
0.383561
0.000414676
0.00433647
0.0082581
0.0121794
0.0161003
0.0200206
0.0239402
0.0278589
0.0317766
0.0356931
0.0396084
0.0435222
0.0474345
0.0513451
0.0552538
0.0591606
0.0630652
0.0669676
0.0708676
0.0747651
0.0786599
0.082552
0.0864411
0.0903271
0.09421
0.0980895
0.101966
0.105838
0.109707
0.113572
0.117433
0.121289
0.125142
0.12899
0.132834
0.136673
0.140508
0.144337
0.148162
0.151981
0.155795
0.159604
0.163408
0.167206
0.170998
0.174784
0.178565
0.182339
0.186108
0.18987
0.193625
0.197375
0.201117
0.204853
0.208582
0.212304
0.21602
0.219728
0.223429
0.227122
0.230808
0.234487
0.238158
0.241821
0.245476
0.249124
0.252763
0.256395
0.260018
0.263633
0.267239
0.270837
0.274427
0.278007
0.281579
0.285142
0.288697
0.292242
0.295778
0.299305
0.302822
0.30633
0.309829
0.313318
0.316798
0.320268
0.323728
0.327178
0.330618
0.334048
0.337469
0.340879
0.344278
0.347668
0.351047
0.354415
0.357773
0.36112
0.364457
0.367782
0.000393953
0.00414724
0.00790039
0.0116533
0.0154057
0.0191577
0.022909
0.0266595
0.0304092
0.0341578
0.0379053
0.0416515
0.0453963
0.0491396
0.0528812
0.0566211
0.0603591
0.0640951
0.0678289
0.0715605
0.0752897
0.0790164
0.0827405
0.0864619
0.0901804
0.0938959
0.0976083
0.101318
0.105023
0.108726
0.112425
0.11612
0.119811
0.123499
0.127182
0.130861
0.134537
0.138207
0.141873
0.145535
0.149192
0.152844
0.156491
0.160134
0.163771
0.167403
0.171029
0.17465
0.178266
0.181875
0.18548
0.189078
0.19267
0.196256
0.199836
0.20341
0.206978
0.210539
0.214093
0.217641
0.221182
0.224716
0.228244
0.231764
0.235277
0.238783
0.242282
0.245773
0.249257
0.252733
0.256202
0.259662
0.263115
0.266561
0.269998
0.273427
0.276848
0.28026
0.283665
0.287061
0.290448
0.293827
0.297197
0.300558
0.303911
0.307255
0.31059
0.313915
0.317232
0.32054
0.323838
0.327127
0.330406
0.333676
0.336936
0.340187
0.343428
0.34666
0.349881
0.353093
0.000375202
0.00397256
0.00756979
0.0111668
0.0147634
0.0183596
0.0219552
0.02555
0.0291441
0.0327373
0.0363294
0.0399204
0.0435102
0.0470986
0.0506855
0.0542708
0.0578544
0.0614362
0.0650161
0.068594
0.0721697
0.0757432
0.0793143
0.082883
0.0864491
0.0900125
0.0935731
0.0971308
0.100686
0.104237
0.107786
0.111331
0.114872
0.11841
0.121945
0.125476
0.129003
0.132526
0.136045
0.139559
0.14307
0.146576
0.150078
0.153575
0.157068
0.160556
0.164039
0.167517
0.17099
0.174458
0.17792
0.181378
0.18483
0.188276
0.191717
0.195153
0.198582
0.202006
0.205423
0.208835
0.21224
0.21564
0.219033
0.222419
0.225799
0.229173
0.23254
0.2359
0.239253
0.2426
0.245939
0.249272
0.252597
0.255915
0.259226
0.262529
0.265825
0.269113
0.272394
0.275667
0.278932
0.28219
0.285439
0.288681
0.291915
0.29514
0.298357
0.301566
0.304767
0.307959
0.311142
0.314318
0.317484
0.320642
0.323791
0.326931
0.330063