# vtk DataFile Version 3.0
vtk output
ASCII
DATASET STRUCTURED_GRID
DIMENSIONS 4 4 1
POINTS 16 float
0 0 0
1 0 0
2 0 0
3 0 0
0 1 0
1 1 0
2 1 0
3 1 0
0 2 0
1 2 0
2 2 0
3 2 0
0 3 0
1 3 0
2 3 0
3 3 0

CELL_DATA 9
SCALARS phi float
LOOKUP_TABLE dafault 
42
42
42
42
4711
42
42
42
42

