# vtk DataFile Version 3.0
vtk output398
ASCII
DATASET STRUCTURED_GRID
DIMENSIONS 36 26 1
POINTS 936 float
0 0 0
0.171429 0 0
0.342857 0 0
0.514286 0 0
0.685714 0 0
0.857143 0 0
1.02857 0 0
1.2 0 0
1.37143 0 0
1.54286 0 0
1.71429 0 0
1.88571 0 0
2.05714 0 0
2.22857 0 0
2.4 0 0
2.57143 0 0
2.74286 0 0
2.91429 0 0
3.08571 0 0
3.25714 0 0
3.42857 0 0
3.6 0 0
3.77143 0 0
3.94286 0 0
4.11429 0 0
4.28571 0 0
4.45714 0 0
4.62857 0 0
4.8 0 0
4.97143 0 0
5.14286 0 0
5.31429 0 0
5.48571 0 0
5.65714 0 0
5.82857 0 0
6 0 0
0 0.2 0
0.171429 0.2 0
0.342857 0.2 0
0.514286 0.2 0
0.685714 0.2 0
0.857143 0.2 0
1.02857 0.2 0
1.2 0.2 0
1.37143 0.2 0
1.54286 0.2 0
1.71429 0.2 0
1.88571 0.2 0
2.05714 0.2 0
2.22857 0.2 0
2.4 0.2 0
2.57143 0.2 0
2.74286 0.2 0
2.91429 0.2 0
3.08571 0.2 0
3.25714 0.2 0
3.42857 0.2 0
3.6 0.2 0
3.77143 0.2 0
3.94286 0.2 0
4.11429 0.2 0
4.28571 0.2 0
4.45714 0.2 0
4.62857 0.2 0
4.8 0.2 0
4.97143 0.2 0
5.14286 0.2 0
5.31429 0.2 0
5.48571 0.2 0
5.65714 0.2 0
5.82857 0.2 0
6 0.2 0
0 0.4 0
0.171429 0.4 0
0.342857 0.4 0
0.514286 0.4 0
0.685714 0.4 0
0.857143 0.4 0
1.02857 0.4 0
1.2 0.4 0
1.37143 0.4 0
1.54286 0.4 0
1.71429 0.4 0
1.88571 0.4 0
2.05714 0.4 0
2.22857 0.4 0
2.4 0.4 0
2.57143 0.4 0
2.74286 0.4 0
2.91429 0.4 0
3.08571 0.4 0
3.25714 0.4 0
3.42857 0.4 0
3.6 0.4 0
3.77143 0.4 0
3.94286 0.4 0
4.11429 0.4 0
4.28571 0.4 0
4.45714 0.4 0
4.62857 0.4 0
4.8 0.4 0
4.97143 0.4 0
5.14286 0.4 0
5.31429 0.4 0
5.48571 0.4 0
5.65714 0.4 0
5.82857 0.4 0
6 0.4 0
0 0.6 0
0.171429 0.6 0
0.342857 0.6 0
0.514286 0.6 0
0.685714 0.6 0
0.857143 0.6 0
1.02857 0.6 0
1.2 0.6 0
1.37143 0.6 0
1.54286 0.6 0
1.71429 0.6 0
1.88571 0.6 0
2.05714 0.6 0
2.22857 0.6 0
2.4 0.6 0
2.57143 0.6 0
2.74286 0.6 0
2.91429 0.6 0
3.08571 0.6 0
3.25714 0.6 0
3.42857 0.6 0
3.6 0.6 0
3.77143 0.6 0
3.94286 0.6 0
4.11429 0.6 0
4.28571 0.6 0
4.45714 0.6 0
4.62857 0.6 0
4.8 0.6 0
4.97143 0.6 0
5.14286 0.6 0
5.31429 0.6 0
5.48571 0.6 0
5.65714 0.6 0
5.82857 0.6 0
6 0.6 0
0 0.8 0
0.171429 0.8 0
0.342857 0.8 0
0.514286 0.8 0
0.685714 0.8 0
0.857143 0.8 0
1.02857 0.8 0
1.2 0.8 0
1.37143 0.8 0
1.54286 0.8 0
1.71429 0.8 0
1.88571 0.8 0
2.05714 0.8 0
2.22857 0.8 0
2.4 0.8 0
2.57143 0.8 0
2.74286 0.8 0
2.91429 0.8 0
3.08571 0.8 0
3.25714 0.8 0
3.42857 0.8 0
3.6 0.8 0
3.77143 0.8 0
3.94286 0.8 0
4.11429 0.8 0
4.28571 0.8 0
4.45714 0.8 0
4.62857 0.8 0
4.8 0.8 0
4.97143 0.8 0
5.14286 0.8 0
5.31429 0.8 0
5.48571 0.8 0
5.65714 0.8 0
5.82857 0.8 0
6 0.8 0
0 1 0
0.171429 1 0
0.342857 1 0
0.514286 1 0
0.685714 1 0
0.857143 1 0
1.02857 1 0
1.2 1 0
1.37143 1 0
1.54286 1 0
1.71429 1 0
1.88571 1 0
2.05714 1 0
2.22857 1 0
2.4 1 0
2.57143 1 0
2.74286 1 0
2.91429 1 0
3.08571 1 0
3.25714 1 0
3.42857 1 0
3.6 1 0
3.77143 1 0
3.94286 1 0
4.11429 1 0
4.28571 1 0
4.45714 1 0
4.62857 1 0
4.8 1 0
4.97143 1 0
5.14286 1 0
5.31429 1 0
5.48571 1 0
5.65714 1 0
5.82857 1 0
6 1 0
0 1.2 0
0.171429 1.2 0
0.342857 1.2 0
0.514286 1.2 0
0.685714 1.2 0
0.857143 1.2 0
1.02857 1.2 0
1.2 1.2 0
1.37143 1.2 0
1.54286 1.2 0
1.71429 1.2 0
1.88571 1.2 0
2.05714 1.2 0
2.22857 1.2 0
2.4 1.2 0
2.57143 1.2 0
2.74286 1.2 0
2.91429 1.2 0
3.08571 1.2 0
3.25714 1.2 0
3.42857 1.2 0
3.6 1.2 0
3.77143 1.2 0
3.94286 1.2 0
4.11429 1.2 0
4.28571 1.2 0
4.45714 1.2 0
4.62857 1.2 0
4.8 1.2 0
4.97143 1.2 0
5.14286 1.2 0
5.31429 1.2 0
5.48571 1.2 0
5.65714 1.2 0
5.82857 1.2 0
6 1.2 0
0 1.4 0
0.171429 1.4 0
0.342857 1.4 0
0.514286 1.4 0
0.685714 1.4 0
0.857143 1.4 0
1.02857 1.4 0
1.2 1.4 0
1.37143 1.4 0
1.54286 1.4 0
1.71429 1.4 0
1.88571 1.4 0
2.05714 1.4 0
2.22857 1.4 0
2.4 1.4 0
2.57143 1.4 0
2.74286 1.4 0
2.91429 1.4 0
3.08571 1.4 0
3.25714 1.4 0
3.42857 1.4 0
3.6 1.4 0
3.77143 1.4 0
3.94286 1.4 0
4.11429 1.4 0
4.28571 1.4 0
4.45714 1.4 0
4.62857 1.4 0
4.8 1.4 0
4.97143 1.4 0
5.14286 1.4 0
5.31429 1.4 0
5.48571 1.4 0
5.65714 1.4 0
5.82857 1.4 0
6 1.4 0
0 1.6 0
0.171429 1.6 0
0.342857 1.6 0
0.514286 1.6 0
0.685714 1.6 0
0.857143 1.6 0
1.02857 1.6 0
1.2 1.6 0
1.37143 1.6 0
1.54286 1.6 0
1.71429 1.6 0
1.88571 1.6 0
2.05714 1.6 0
2.22857 1.6 0
2.4 1.6 0
2.57143 1.6 0
2.74286 1.6 0
2.91429 1.6 0
3.08571 1.6 0
3.25714 1.6 0
3.42857 1.6 0
3.6 1.6 0
3.77143 1.6 0
3.94286 1.6 0
4.11429 1.6 0
4.28571 1.6 0
4.45714 1.6 0
4.62857 1.6 0
4.8 1.6 0
4.97143 1.6 0
5.14286 1.6 0
5.31429 1.6 0
5.48571 1.6 0
5.65714 1.6 0
5.82857 1.6 0
6 1.6 0
0 1.8 0
0.171429 1.8 0
0.342857 1.8 0
0.514286 1.8 0
0.685714 1.8 0
0.857143 1.8 0
1.02857 1.8 0
1.2 1.8 0
1.37143 1.8 0
1.54286 1.8 0
1.71429 1.8 0
1.88571 1.8 0
2.05714 1.8 0
2.22857 1.8 0
2.4 1.8 0
2.57143 1.8 0
2.74286 1.8 0
2.91429 1.8 0
3.08571 1.8 0
3.25714 1.8 0
3.42857 1.8 0
3.6 1.8 0
3.77143 1.8 0
3.94286 1.8 0
4.11429 1.8 0
4.28571 1.8 0
4.45714 1.8 0
4.62857 1.8 0
4.8 1.8 0
4.97143 1.8 0
5.14286 1.8 0
5.31429 1.8 0
5.48571 1.8 0
5.65714 1.8 0
5.82857 1.8 0
6 1.8 0
0 2 0
0.171429 2 0
0.342857 2 0
0.514286 2 0
0.685714 2 0
0.857143 2 0
1.02857 2 0
1.2 2 0
1.37143 2 0
1.54286 2 0
1.71429 2 0
1.88571 2 0
2.05714 2 0
2.22857 2 0
2.4 2 0
2.57143 2 0
2.74286 2 0
2.91429 2 0
3.08571 2 0
3.25714 2 0
3.42857 2 0
3.6 2 0
3.77143 2 0
3.94286 2 0
4.11429 2 0
4.28571 2 0
4.45714 2 0
4.62857 2 0
4.8 2 0
4.97143 2 0
5.14286 2 0
5.31429 2 0
5.48571 2 0
5.65714 2 0
5.82857 2 0
6 2 0
0 2.2 0
0.171429 2.2 0
0.342857 2.2 0
0.514286 2.2 0
0.685714 2.2 0
0.857143 2.2 0
1.02857 2.2 0
1.2 2.2 0
1.37143 2.2 0
1.54286 2.2 0
1.71429 2.2 0
1.88571 2.2 0
2.05714 2.2 0
2.22857 2.2 0
2.4 2.2 0
2.57143 2.2 0
2.74286 2.2 0
2.91429 2.2 0
3.08571 2.2 0
3.25714 2.2 0
3.42857 2.2 0
3.6 2.2 0
3.77143 2.2 0
3.94286 2.2 0
4.11429 2.2 0
4.28571 2.2 0
4.45714 2.2 0
4.62857 2.2 0
4.8 2.2 0
4.97143 2.2 0
5.14286 2.2 0
5.31429 2.2 0
5.48571 2.2 0
5.65714 2.2 0
5.82857 2.2 0
6 2.2 0
0 2.4 0
0.171429 2.4 0
0.342857 2.4 0
0.514286 2.4 0
0.685714 2.4 0
0.857143 2.4 0
1.02857 2.4 0
1.2 2.4 0
1.37143 2.4 0
1.54286 2.4 0
1.71429 2.4 0
1.88571 2.4 0
2.05714 2.4 0
2.22857 2.4 0
2.4 2.4 0
2.57143 2.4 0
2.74286 2.4 0
2.91429 2.4 0
3.08571 2.4 0
3.25714 2.4 0
3.42857 2.4 0
3.6 2.4 0
3.77143 2.4 0
3.94286 2.4 0
4.11429 2.4 0
4.28571 2.4 0
4.45714 2.4 0
4.62857 2.4 0
4.8 2.4 0
4.97143 2.4 0
5.14286 2.4 0
5.31429 2.4 0
5.48571 2.4 0
5.65714 2.4 0
5.82857 2.4 0
6 2.4 0
0 2.6 0
0.171429 2.6 0
0.342857 2.6 0
0.514286 2.6 0
0.685714 2.6 0
0.857143 2.6 0
1.02857 2.6 0
1.2 2.6 0
1.37143 2.6 0
1.54286 2.6 0
1.71429 2.6 0
1.88571 2.6 0
2.05714 2.6 0
2.22857 2.6 0
2.4 2.6 0
2.57143 2.6 0
2.74286 2.6 0
2.91429 2.6 0
3.08571 2.6 0
3.25714 2.6 0
3.42857 2.6 0
3.6 2.6 0
3.77143 2.6 0
3.94286 2.6 0
4.11429 2.6 0
4.28571 2.6 0
4.45714 2.6 0
4.62857 2.6 0
4.8 2.6 0
4.97143 2.6 0
5.14286 2.6 0
5.31429 2.6 0
5.48571 2.6 0
5.65714 2.6 0
5.82857 2.6 0
6 2.6 0
0 2.8 0
0.171429 2.8 0
0.342857 2.8 0
0.514286 2.8 0
0.685714 2.8 0
0.857143 2.8 0
1.02857 2.8 0
1.2 2.8 0
1.37143 2.8 0
1.54286 2.8 0
1.71429 2.8 0
1.88571 2.8 0
2.05714 2.8 0
2.22857 2.8 0
2.4 2.8 0
2.57143 2.8 0
2.74286 2.8 0
2.91429 2.8 0
3.08571 2.8 0
3.25714 2.8 0
3.42857 2.8 0
3.6 2.8 0
3.77143 2.8 0
3.94286 2.8 0
4.11429 2.8 0
4.28571 2.8 0
4.45714 2.8 0
4.62857 2.8 0
4.8 2.8 0
4.97143 2.8 0
5.14286 2.8 0
5.31429 2.8 0
5.48571 2.8 0
5.65714 2.8 0
5.82857 2.8 0
6 2.8 0
0 3 0
0.171429 3 0
0.342857 3 0
0.514286 3 0
0.685714 3 0
0.857143 3 0
1.02857 3 0
1.2 3 0
1.37143 3 0
1.54286 3 0
1.71429 3 0
1.88571 3 0
2.05714 3 0
2.22857 3 0
2.4 3 0
2.57143 3 0
2.74286 3 0
2.91429 3 0
3.08571 3 0
3.25714 3 0
3.42857 3 0
3.6 3 0
3.77143 3 0
3.94286 3 0
4.11429 3 0
4.28571 3 0
4.45714 3 0
4.62857 3 0
4.8 3 0
4.97143 3 0
5.14286 3 0
5.31429 3 0
5.48571 3 0
5.65714 3 0
5.82857 3 0
6 3 0
0 3.2 0
0.171429 3.2 0
0.342857 3.2 0
0.514286 3.2 0
0.685714 3.2 0
0.857143 3.2 0
1.02857 3.2 0
1.2 3.2 0
1.37143 3.2 0
1.54286 3.2 0
1.71429 3.2 0
1.88571 3.2 0
2.05714 3.2 0
2.22857 3.2 0
2.4 3.2 0
2.57143 3.2 0
2.74286 3.2 0
2.91429 3.2 0
3.08571 3.2 0
3.25714 3.2 0
3.42857 3.2 0
3.6 3.2 0
3.77143 3.2 0
3.94286 3.2 0
4.11429 3.2 0
4.28571 3.2 0
4.45714 3.2 0
4.62857 3.2 0
4.8 3.2 0
4.97143 3.2 0
5.14286 3.2 0
5.31429 3.2 0
5.48571 3.2 0
5.65714 3.2 0
5.82857 3.2 0
6 3.2 0
0 3.4 0
0.171429 3.4 0
0.342857 3.4 0
0.514286 3.4 0
0.685714 3.4 0
0.857143 3.4 0
1.02857 3.4 0
1.2 3.4 0
1.37143 3.4 0
1.54286 3.4 0
1.71429 3.4 0
1.88571 3.4 0
2.05714 3.4 0
2.22857 3.4 0
2.4 3.4 0
2.57143 3.4 0
2.74286 3.4 0
2.91429 3.4 0
3.08571 3.4 0
3.25714 3.4 0
3.42857 3.4 0
3.6 3.4 0
3.77143 3.4 0
3.94286 3.4 0
4.11429 3.4 0
4.28571 3.4 0
4.45714 3.4 0
4.62857 3.4 0
4.8 3.4 0
4.97143 3.4 0
5.14286 3.4 0
5.31429 3.4 0
5.48571 3.4 0
5.65714 3.4 0
5.82857 3.4 0
6 3.4 0
0 3.6 0
0.171429 3.6 0
0.342857 3.6 0
0.514286 3.6 0
0.685714 3.6 0
0.857143 3.6 0
1.02857 3.6 0
1.2 3.6 0
1.37143 3.6 0
1.54286 3.6 0
1.71429 3.6 0
1.88571 3.6 0
2.05714 3.6 0
2.22857 3.6 0
2.4 3.6 0
2.57143 3.6 0
2.74286 3.6 0
2.91429 3.6 0
3.08571 3.6 0
3.25714 3.6 0
3.42857 3.6 0
3.6 3.6 0
3.77143 3.6 0
3.94286 3.6 0
4.11429 3.6 0
4.28571 3.6 0
4.45714 3.6 0
4.62857 3.6 0
4.8 3.6 0
4.97143 3.6 0
5.14286 3.6 0
5.31429 3.6 0
5.48571 3.6 0
5.65714 3.6 0
5.82857 3.6 0
6 3.6 0
0 3.8 0
0.171429 3.8 0
0.342857 3.8 0
0.514286 3.8 0
0.685714 3.8 0
0.857143 3.8 0
1.02857 3.8 0
1.2 3.8 0
1.37143 3.8 0
1.54286 3.8 0
1.71429 3.8 0
1.88571 3.8 0
2.05714 3.8 0
2.22857 3.8 0
2.4 3.8 0
2.57143 3.8 0
2.74286 3.8 0
2.91429 3.8 0
3.08571 3.8 0
3.25714 3.8 0
3.42857 3.8 0
3.6 3.8 0
3.77143 3.8 0
3.94286 3.8 0
4.11429 3.8 0
4.28571 3.8 0
4.45714 3.8 0
4.62857 3.8 0
4.8 3.8 0
4.97143 3.8 0
5.14286 3.8 0
5.31429 3.8 0
5.48571 3.8 0
5.65714 3.8 0
5.82857 3.8 0
6 3.8 0
0 4 0
0.171429 4 0
0.342857 4 0
0.514286 4 0
0.685714 4 0
0.857143 4 0
1.02857 4 0
1.2 4 0
1.37143 4 0
1.54286 4 0
1.71429 4 0
1.88571 4 0
2.05714 4 0
2.22857 4 0
2.4 4 0
2.57143 4 0
2.74286 4 0
2.91429 4 0
3.08571 4 0
3.25714 4 0
3.42857 4 0
3.6 4 0
3.77143 4 0
3.94286 4 0
4.11429 4 0
4.28571 4 0
4.45714 4 0
4.62857 4 0
4.8 4 0
4.97143 4 0
5.14286 4 0
5.31429 4 0
5.48571 4 0
5.65714 4 0
5.82857 4 0
6 4 0
0 4.2 0
0.171429 4.2 0
0.342857 4.2 0
0.514286 4.2 0
0.685714 4.2 0
0.857143 4.2 0
1.02857 4.2 0
1.2 4.2 0
1.37143 4.2 0
1.54286 4.2 0
1.71429 4.2 0
1.88571 4.2 0
2.05714 4.2 0
2.22857 4.2 0
2.4 4.2 0
2.57143 4.2 0
2.74286 4.2 0
2.91429 4.2 0
3.08571 4.2 0
3.25714 4.2 0
3.42857 4.2 0
3.6 4.2 0
3.77143 4.2 0
3.94286 4.2 0
4.11429 4.2 0
4.28571 4.2 0
4.45714 4.2 0
4.62857 4.2 0
4.8 4.2 0
4.97143 4.2 0
5.14286 4.2 0
5.31429 4.2 0
5.48571 4.2 0
5.65714 4.2 0
5.82857 4.2 0
6 4.2 0
0 4.4 0
0.171429 4.4 0
0.342857 4.4 0
0.514286 4.4 0
0.685714 4.4 0
0.857143 4.4 0
1.02857 4.4 0
1.2 4.4 0
1.37143 4.4 0
1.54286 4.4 0
1.71429 4.4 0
1.88571 4.4 0
2.05714 4.4 0
2.22857 4.4 0
2.4 4.4 0
2.57143 4.4 0
2.74286 4.4 0
2.91429 4.4 0
3.08571 4.4 0
3.25714 4.4 0
3.42857 4.4 0
3.6 4.4 0
3.77143 4.4 0
3.94286 4.4 0
4.11429 4.4 0
4.28571 4.4 0
4.45714 4.4 0
4.62857 4.4 0
4.8 4.4 0
4.97143 4.4 0
5.14286 4.4 0
5.31429 4.4 0
5.48571 4.4 0
5.65714 4.4 0
5.82857 4.4 0
6 4.4 0
0 4.6 0
0.171429 4.6 0
0.342857 4.6 0
0.514286 4.6 0
0.685714 4.6 0
0.857143 4.6 0
1.02857 4.6 0
1.2 4.6 0
1.37143 4.6 0
1.54286 4.6 0
1.71429 4.6 0
1.88571 4.6 0
2.05714 4.6 0
2.22857 4.6 0
2.4 4.6 0
2.57143 4.6 0
2.74286 4.6 0
2.91429 4.6 0
3.08571 4.6 0
3.25714 4.6 0
3.42857 4.6 0
3.6 4.6 0
3.77143 4.6 0
3.94286 4.6 0
4.11429 4.6 0
4.28571 4.6 0
4.45714 4.6 0
4.62857 4.6 0
4.8 4.6 0
4.97143 4.6 0
5.14286 4.6 0
5.31429 4.6 0
5.48571 4.6 0
5.65714 4.6 0
5.82857 4.6 0
6 4.6 0
0 4.8 0
0.171429 4.8 0
0.342857 4.8 0
0.514286 4.8 0
0.685714 4.8 0
0.857143 4.8 0
1.02857 4.8 0
1.2 4.8 0
1.37143 4.8 0
1.54286 4.8 0
1.71429 4.8 0
1.88571 4.8 0
2.05714 4.8 0
2.22857 4.8 0
2.4 4.8 0
2.57143 4.8 0
2.74286 4.8 0
2.91429 4.8 0
3.08571 4.8 0
3.25714 4.8 0
3.42857 4.8 0
3.6 4.8 0
3.77143 4.8 0
3.94286 4.8 0
4.11429 4.8 0
4.28571 4.8 0
4.45714 4.8 0
4.62857 4.8 0
4.8 4.8 0
4.97143 4.8 0
5.14286 4.8 0
5.31429 4.8 0
5.48571 4.8 0
5.65714 4.8 0
5.82857 4.8 0
6 4.8 0
0 5 0
0.171429 5 0
0.342857 5 0
0.514286 5 0
0.685714 5 0
0.857143 5 0
1.02857 5 0
1.2 5 0
1.37143 5 0
1.54286 5 0
1.71429 5 0
1.88571 5 0
2.05714 5 0
2.22857 5 0
2.4 5 0
2.57143 5 0
2.74286 5 0
2.91429 5 0
3.08571 5 0
3.25714 5 0
3.42857 5 0
3.6 5 0
3.77143 5 0
3.94286 5 0
4.11429 5 0
4.28571 5 0
4.45714 5 0
4.62857 5 0
4.8 5 0
4.97143 5 0
5.14286 5 0
5.31429 5 0
5.48571 5 0
5.65714 5 0
5.82857 5 0
6 5 0

CELL_DATA 875
SCALARS phi float
LOOKUP_TABLE default 
4.711
4.711
4.711
4.711
4.711
4.711
4.711
4.711
4.711
4.711
4.711
4.711
4.711
4.711
4.711
4.711
4.711
4.711
4.711
4.711
4.711
4.711
4.711
4.711
4.711
4.711
4.711
4.711
4.711
4.711
4.711
4.711
4.711
4.711
4.711
4.711
4.711
4.711
4.711
4.711
4.711
4.711
4.711
4.711
4.711
4.711
4.711
4.711
4.711
4.711
4.711
4.711
4.711
4.711
4.711
4.711
4.711
4.711
4.711
4.711
4.711
4.711
4.711
4.711
4.711
4.711
4.711
4.711
4.711
4.711
4.711
4.711
4.711
4.711
4.711
4.711
4.711
4.711
4.711
4.711
4.711
4.711
4.711
4.711
4.711
4.711
4.711
4.711
4.711
4.711
4.711
4.711
4.711
4.711
4.711
4.711
4.711
4.711
4.711
4.711
4.711
4.711
4.711
4.711
4.711
4.711
4.711
4.711
4.711
4.711
4.711
4.711
4.711
4.711
4.711
4.711
4.711
4.711
4.711
4.711
4.711
4.711
4.711
4.711
4.711
4.711
4.711
4.711
4.711
4.711
4.711
4.711
4.711
4.711
4.711
4.711
4.711
4.711
4.711
4.711
4.711
4.711
4.711
4.711
4.711
4.711
4.711
4.711
4.711
4.711
4.711
4.711
4.711
4.711
4.711
4.711
4.711
4.711
4.711
4.711
4.711
4.711
4.711
4.711
4.711
4.711
4.711
4.711
4.711
4.711
4.711
4.711
4.711
4.711
4.711
4.711
4.711
4.711
4.711
4.711
4.711
4.711
4.711
4.711
4.711
4.711
4.711
4.711
4.711
4.711
4.711
4.711
4.711
4.711
4.711
4.711
4.711
4.711
4.711
4.711
4.711
4.711
4.711
4.711
4.711
4.711
4.711
4.711
4.711
4.711
4.711
4.711
4.711
4.711
4.711
4.711
4.711
4.711
4.711
4.711
4.711
4.711
4.711
4.711
4.711
4.711
4.711
4.711
4.711
4.711
4.711
4.711
4.711
4.711
4.711
4.711
4.711
4.711
4.711
4.711
4.711
4.711
4.711
4.711
4.711
4.711
4.711
4.711
4.711
4.711
4.711
4.711
4.711
4.711
4.711
4.711
4.711
4.711
4.711
4.711
4.711
4.711
4.711
4.711
4.711
4.711
4.711
4.711
4.711
4.711
4.711
4.711
4.711
4.711
4.711
4.711
4.711
4.711
4.711
4.711
4.711
4.711
4.711
4.711
4.711
4.711
4.711
4.711
4.711
4.711
4.711
4.711
4.711
4.711
4.711
4.711
4.711
4.711
4.711
4.711
4.711
4.711
4.711
4.711
4.711
4.711
4.711
4.711
4.711
4.711
4.711
4.711
4.711
4.711
4.711
4.711
4.711
4.711
4.711
4.711
4.711
4.711
4.711
4.711
4.711
4.711
4.711
4.711
4.711
4.711
4.711
4.711
4.711
4.711
4.711
4.711
4.711
4.711
4.711
4.711
4.711
4.711
4.711
4.711
4.711
4.711
4.711
4.711
4.711
4.711
4.711
4.711
4.711
4.711
4.711
4.711
4.711
4.711
4.711
4.711
4.711
4.711
4.711
4.711
4.711
4.711
4.711
4.711
4.711
4.711
4.711
4.711
4.711
4.711
4.711
4.711
4.711
4.711
4.711
4.711
4.711
4.711
4.711
4.711
4.711
4.711
4.711
4.711
4.711
4.711
4.711
4.711
4.711
4.711
4.711
4.711
4.711
4.711
4.711
4.711
4.711
4.711
4.711
4.711
4.711
4.711
4.711
4.711
4.711
4.711
4.711
4.711
4.711
4.711
4.711
4.711
4.711
4.711
4.711
4.711
4.711
4.711
4.711
4.711
4.711
4.711
4.711
4.711
4.711
4.711
4.711
4.711
4.711
4.711
4.711
4.711
4.711
4.711
4.711
4.711
4.711
4.711
4.711
4.711
4.711
4.711
4.711
4.711
4.711
4.711
4.711
4.711
4.711
4.711
4.711
4.711
4.711
4.711
4.711
4.711
4.711
4.711
4.711
4.711
4.711
4.711
4.711
4.711
4.711
4.711
4.711
4.711
4.711
4.711
4.711
4.711
4.711
4.711
4.711
4.711
4.711
4.711
4.711
4.711
4.711
4.711
4.711
4.711
4.711
4.711
4.711
4.711
4.711
4.711
4.711
4.711
4.711
4.711
4.711
4.711
4.711
4.711
4.711
4.711
4.711
4.711
4.711
4.711
4.711
4.711
4.711
4.711
4.711
4.711
4.711
4.711
4.711
4.711
4.711
4.711
4.711
4.711
4.711
4.711
4.711
4.711
4.711
4.711
4.711
4.711
4.711
4.711
4.711
4.711
4.711
4.711
4.711
4.711
4.711
4.711
4.711
4.711
4.711
4.711
4.711
4.711
4.711
4.711
4.711
4.711
4.711
4.711
4.711
4.711
4.711
4.711
4.711
4.711
4.711
4.711
4.711
4.711
4.711
4.711
4.711
4.711
4.711
4.711
4.711
4.711
4.711
4.711
4.711
4.711
4.711
4.711
4.711
4.711
4.711
4.711
4.711
4.711
4.711
4.711
4.711
4.711
4.711
4.711
4.711
4.711
4.711
4.711
4.711
4.711
4.711
4.711
4.711
4.711
4.711
4.711
4.711
4.711
4.711
4.711
4.711
4.711
4.711
4.711
4.711
4.711
4.711
4.711
4.711
4.711
4.711
4.711
4.711
4.711
4.711
4.711
4.711
4.711
4.711
4.711
4.711
4.711
4.711
4.711
4.711
4.711
4.711
4.711
4.711
4.711
4.711
4.711
4.711
4.711
4.711
4.711
4.711
4.711
4.711
4.711
4.711
4.711
4.711
4.711
4.711
4.711
4.711
4.711
4.711
4.711
4.711
4.711
4.711
4.711
4.711
4.711
4.711
4.711
4.711
4.711
4.711
4.711
4.711
4.711
4.711
4.711
4.711
4.711
4.711
4.711
4.711
4.711
4.711
4.711
4.711
4.711
4.711
4.711
4.711
4.711
4.711
4.711
4.711
4.711
4.711
4.711
4.711
4.711
4.711
4.711
4.711
4.711
4.711
4.711
4.711
4.711
4.711
4.711
4.711
4.711
4.711
4.711
4.711
4.711
4.711
4.711
4.711
4.711
4.711
4.711
4.711
4.711
4.711
4.711
4.711
4.711
4.711
4.711
4.711
4.711
4.711
4.711
4.711
4.711
4.711
4.711
4.711
4.711
4.711
4.711
4.711
4.711
4.711
4.711
4.711
4.711
4.711
4.711
4.711
4.711
4.711
4.711
4.711
4.711
4.711
4.711
4.711
4.711
4.711
4.711
4.711
4.711
4.711
4.711
4.711
4.711
4.711
4.711
4.711
4.711
4.711
4.711
4.711
4.711
4.711
4.711
4.711
4.711
4.711
4.711
4.711
4.711
4.711
4.711
4.711
4.711
4.711
4.711
4.711
4.711
4.711
4.711
4.711
4.711
4.711
4.711
4.711
4.711
4.711
4.711
4.711
4.711
4.711
4.711
4.711
4.711
4.711
4.711
4.711
4.711
4.711
4.711
4.711
4.711
4.711
4.711
4.711
4.711
4.711
4.711
4.711
4.711
4.711
4.711
4.711
4.711
4.711
4.711
4.711
4.711
4.711
4.711
4.711
4.711
4.711
4.711
4.711
4.711
4.711
4.711
4.711
4.711
4.711
4.711
4.711
4.711
4.711
4.711
4.711
4.711
4.711
4.711
4.711
4.711
4.711
4.711
4.711
4.711
4.711
4.711
4.711
4.711
4.711
4.711
4.711
4.711
4.711
4.711
4.711
4.711
4.711
4.711
4.711
4.711
4.711
4.711
4.711
4.711
4.711
4.711
4.711

SCALARS p float
LOOKUP_TABLE default 
-1632.71
-1632.71
-1631.83
-1628.02
-1621.97
-1621.97
0
0
0
-4818.58
-4818.58
-4746.69
-4558.04
-4258.23
-3880.31
-3462.89
-3037.7
-2626.77
-2243.79
-1896.14
-1586.91
-1316.3
-1082.62
-883.021
-714.056
-572.044
-453.299
-354.347
-271.998
-203.405
-146.077
-97.8745
-56.9844
-21.7711
10
-1632.71
-1632.71
-1631.83
-1628.02
-1621.97
-1621.97
0
0
0
-4818.58
-4818.58
-4746.69
-4558.04
-4258.23
-3880.31
-3462.89
-3037.7
-2626.77
-2243.79
-1896.14
-1586.91
-1316.3
-1082.62
-883.021
-714.056
-572.044
-453.299
-354.347
-271.998
-203.405
-146.077
-97.8745
-56.9844
-21.7711
10
-1639.34
-1639.34
-1638.13
-1633.64
-1625.68
-1625.68
0
0
0
-4823.34
-4823.34
-4759.94
-4576.06
-4271.41
-3884.37
-3458.6
-3027.75
-2613.86
-2229.95
-1882.68
-1574.6
-1305.5
-1073.43
-875.413
-707.891
-567.144
-449.472
-351.41
-269.785
-201.776
-144.92
-97.1037
-56.5413
-21.6698
10
-1657.76
-1657.76
-1656.49
-1650.99
-1640.61
-1640.61
0
0
0
-4838.58
-4838.58
-4747.33
-4542.83
-4227.43
-3837.68
-3414.18
-2988.32
-2580.63
-2203.16
-1861.96
-1559.26
-1294.69
-1066.27
-871.046
-705.57
-566.232
-449.452
-351.884
-270.462
-202.454
-145.473
-97.4634
-56.6847
-21.6347
10
-1694.19
-1694.19
-1693.22
-1687.18
-1674.92
-1674.92
0
0
0
-4915.42
-4915.42
-4758.01
-4499.86
-4160.69
-3766.54
-3348.52
-2932.71
-2536.62
-2170.55
-1839.58
-1545.45
-1287.69
-1064.36
-872.706
-709.514
-571.423
-455.091
-357.386
-275.428
-206.635
-148.739
-99.7752
-58.073
-22.2008
10
-1753.7
-1753.7
-1753.98
-1749.27
-1737.02
-1737.02
0
0
0
-5144.57
-5144.57
-4878.95
-4526.16
-4141.32
-3721.99
-3295.58
-2883.37
-2497.2
-2143.08
-1823.58
-1539.22
-1289.08
-1071.22
-883.098
-721.828
-584.384
-467.736
-369.029
-285.613
-215.096
-155.355
-104.535
-61.0454
-23.5215
10
-1838.51
-1838.51
-1842.21
-1843.46
-1837.09
-1837.09
0
0
0
-5542.15
-5542.15
-5386.63
-4846.79
-4297.63
-3762.19
-3283.83
-2857.57
-2474.7
-2130.12
-1821.11
-1545.9
-1302.74
-1089.6
-904.16
-743.873
-606.096
-488.139
-387.437
-301.565
-228.33
-165.776
-112.149
-65.9275
-25.7989
10
-1945.58
-1945.58
-1956.36
-1973.32
-1993.15
-1993.15
-2688.45
-2876.19
-3060.43
-3244.39
-3436.67
-3656.96
-6731.59
-4754.41
-3861.8
-3291.93
-2848.06
-2469.22
-2134.23
-1834.89
-1567.56
-1329.99
-1120.16
-936.051
-775.517
-636.3
-516.05
-412.471
-323.238
-246.376
-180.164
-122.895
-73.0752
-29.3779
10
-2063.93
-2063.93
-2084.47
-2126.85
-2206.42
-2374.57
-2688.45
-2876.19
-3060.43
-3244.39
-3436.67
-3656.96
-4808.27
-4231.45
-3685.83
-3223.81
-2824.54
-2470.06
-2150.83
-1862.26
-1602.14
-1368.97
-1161.12
-977.049
-815.148
-673.573
-550.269
-443.263
-349.884
-268.569
-197.545
-135.542
-81.2943
-33.472
10
-2175.73
-2175.73
-2202.14
-2256.55
-2348.31
-2491.94
-2688.45
-2876.19
-3060.43
-3244.39
-3436.67
-3656.96
-3902.88
-3762.33
-3466.98
-3131.61
-2797.24
-2477.89
-2178.69
-1901.78
-1648.29
-1418.67
-1211.53
-1026.08
-860.694
-713.936
-584.55
-470.913
-371.982
-285.762
-210.624
-144.91
-87.155
-36.0669
10
-2266.16
-2266.16
-2294.46
-2351.66
-2441.39
-2566.53
-2722.4
-2889.18
-3058.95
-3226.3
-3384.93
-3521.55
-3599.98
-3524.41
-3333.16
-3077.56
-2793.77
-2503.51
-2219.74
-1949.87
-1698.07
-1466.15
-1255.78
-1066.48
-897.504
-747.559
-614.85
-497.788
-394.915
-304.609
-225.312
-155.535
-93.9233
-39.2539
10
-2326.07
-2326.07
-2354.52
-2411.5
-2498.01
-2613.65
-2753.99
-2909.37
-3070.78
-3228.62
-3369.95
-3474.84
-3513.04
-3450.87
-3295.85
-3074.78
-2815.59
-2540.5
-2264.99
-1998.87
-1748.05
-1515.71
-1303.4
-1111.32
-938.851
-784.902
-648
-526.659
-419.372
-324.615
-240.913
-166.869
-101.206
-42.7527
10
-2350.54
-2350.54
-2378.98
-2435.99
-2522.06
-2636.41
-2775.35
-2931.72
-3097.11
-3261.26
-3409.48
-3520.21
-3563.66
-3511.56
-3366.39
-3151.15
-2893.42
-2616.57
-2337.43
-2066.81
-1811.2
-1574.07
-1356.92
-1159.98
-982.629
-823.799
-682.075
-555.99
-444.031
-344.702
-256.566
-178.268
-108.574
-46.3387
10
-2337.55
-2337.55
-2366.79
-2425.63
-2515.54
-2636.89
-2786.45
-2955.97
-3138.09
-3325.02
-3505.81
-3660.11
-3747.7
-3708.15
-3550.61
-3312.64
-3031.26
-2733.73
-2437.66
-2153.41
-1886.75
-1640.43
-1415.4
-1211.49
-1027.83
-863.182
-716.03
-584.839
-468.046
-364.128
-271.64
-189.23
-115.667
-49.8092
10
-2287.59
-2287.59
-2317.34
-2377.92
-2473.89
-2609.77
-2783.47
-2978.05
-3189.19
-3415.53
-3653.78
-3898.83
-4115.67
-4081.88
-3868.79
-3565.33
-3228.6
-2889.26
-2562.66
-2256
-1972.47
-1713.03
-1477.43
-1264.69
-1073.47
-902.176
-749.096
-612.539
-490.838
-382.399
-285.725
-199.43
-122.255
-53.0411
10
-2204.52
-2204.52
-2232.58
-2290.9
-2390.06
-2547.13
-2767.49
-2993.54
-3237
-3509.35
-3823.18
-4233.66
-4861.23
-4735.58
-4348.7
-3905.89
-3474.4
-3072.73
-2704.47
-2368.89
-2064.37
-1789.03
-1540.91
-1318
-1118.29
-939.789
-780.467
-638.436
-511.881
-399.094
-298.493
-208.626
-128.183
-55.9581
10
-2097.23
-2097.23
-2119.12
-2164.65
-2250.31
-2431.35
-2767.49
-2993.54
-3237
-3509.35
-3823.18
-4233.66
-6852.59
-5842.68
-4976.68
-4293.61
-3736.25
-3262.8
-2849.6
-2483.45
-2156.73
-1864.46
-1602.98
-1369.28
-1160.68
-974.747
-809.141
-661.741
-530.553
-413.733
-309.587
-216.57
-133.294
-58.4884
10
-1981.13
-1981.13
-1992.65
-2011.09
-2032.73
-2032.73
-2767.49
-2993.54
-3237
-3823.18
-3823.18
-4233.66
-10757.7
-7058.39
-5519.8
-4616.14
-3962.33
-3434.53
-2984.96
-2591.99
-2244.5
-1935.72
-1660.93
-1416.39
-1198.91
-1005.66
-833.991
-681.542
-546.126
-425.743
-318.568
-222.948
-137.392
-60.5374
10
-1875.06
-1875.06
-1879.09
-1880.93
-1875.12
-1875.12
0
0
0
-9185.55
-9185.55
-9343.84
-7636.64
-6482.94
-5524.92
-4752.96
-4116.27
-3574.89
-3104.59
-2690.95
-2325.03
-2000.59
-1712.8
-1457.62
-1231.5
-1031.24
-853.917
-696.906
-557.814
-434.474
-324.919
-227.37
-140.217
-61.9734
10
-1790.66
-1790.66
-1791.08
-1786.58
-1774.51
-1774.51
0
0
0
-8274.11
-8274.11
-7784.6
-6980.05
-6223.89
-5504.81
-4839.07
-4235.69
-3694.23
-3210.59
-2779.76
-2396.93
-2057.48
-1757.06
-1491.55
-1257.14
-1050.34
-867.895
-706.924
-564.815
-439.224
-328.041
-229.354
-141.424
-62.6138
10
-1731.32
-1731.32
-1730.39
-1724.43
-1712.22
-1712.22
0
0
0
-7635.57
-7635.57
-7269.73
-6751.2
-6163.4
-5546.63
-4932.82
-4346.18
-3801.12
-3304.25
-2857.03
-2458.05
-2104.24
-1791.77
-1516.53
-1274.48
-1061.79
-874.91
-710.694
-566.307
-439.233
-327.232
-228.285
-140.536
-62.1859
10
-1694.95
-1694.95
-1693.69
-1688.21
-1677.86
-1677.86
0
0
0
-7306.29
-7306.29
-7063.7
-6682.08
-6187.58
-5623.12
-5031.59
-4447.25
-3892.94
-3381.51
-2918.39
-2504.42
-2137.56
-1814.32
-1530.54
-1281.91
-1064.32
-873.926
-707.314
-561.452
-433.679
-321.667
-223.348
-136.834
-60.2274
10
-1676.54
-1676.54
-1675.34
-1670.86
-1662.9
-1662.9
0
0
0
-7156.79
-7156.79
-6984.55
-6677.46
-6236.15
-5698.86
-5114.6
-4525.16
-3959.36
-3434.07
-2957.16
-2530.75
-2153.37
-1821.64
-1531.28
-1277.76
-1056.69
-863.967
-695.959
-549.47
-421.739
-310.406
-213.459
-129.157
-55.8147
10
-1669.92
-1669.92
-1669.04
-1665.24
-1659.18
-1659.18
0
0
0
-7102.75
-7102.75
-6964.67
-6692.3
-6274.05
-5745.86
-5160.35
-4563.73
-3988.18
-3452.7
-2966.34
-2531.79
-2147.8
-1810.96
-1516.84
-1260.73
-1038.03
-844.441
-676.186
-529.949
-402.904
-292.695
-197.432
-115.733
-46.8482
10
-1669.92
-1669.92
-1669.04
-1665.24
-1659.18
-1659.18
0
0
0
-7102.75
-7102.75
-6964.67
-6692.3
-6274.05
-5745.86
-5160.35
-4563.73
-3988.18
-3452.7
-2966.34
-2531.79
-2147.8
-1810.96
-1516.84
-1260.73
-1038.03
-844.441
-676.186
-529.949
-402.904
-292.695
-197.432
-115.733
-46.8482
10

SCALARS  u float
LOOKUP_TABLE default 
0.3625
-0.741658
-0.758788
-0.763833
-0.767726
-0.772845
0
0
0
-2.91511
-3.2338
-3.23934
-3.23046
-3.20568
-3.16748
-3.12028
-3.06841
-3.01529
-2.96333
-2.91412
-2.86868
-2.82755
-2.79101
-2.75909
-2.73168
-2.70855
-2.68942
-2.67394
-2.66176
-2.65251
-2.64582
-2.64133
-2.6387
-2.6376
-2.6376
1.40229
-0.818797
-0.861124
-0.883028
-0.906874
-1.23787
0
0
0
-5.96914
-6.70954
-6.79869
-6.8162
-6.78027
-6.70612
-6.60815
-6.49787
-6.38355
-6.2708
-6.16326
-6.06318
-5.97187
-5.88993
-5.81748
-5.75431
-5.69995
-5.65382
-5.61522
-5.58344
-5.55773
-5.53738
-5.52176
-5.51046
-5.50373
-5.50194
2.24381
-0.411256
-0.464798
-0.486612
-0.507196
-1.04076
0
0
0
-5.92286
-6.42807
-6.4018
-6.35405
-6.28262
-6.19792
-6.10814
-6.01886
-5.93366
-5.85474
-5.78344
-5.72049
-5.66613
-5.62027
-5.58252
-5.5523
-5.52891
-5.51158
-5.49954
-5.49202
-5.48828
-5.48766
-5.48954
-5.49341
-5.49932
-5.50311
3.00363
1.53743
0.569734
-0.0983959
-0.14142
-0.865023
0
0
0
-5.8648
-6.18465
-6.01782
-5.8539
-5.72048
-5.61604
-5.53305
-5.46555
-5.40998
-5.36438
-5.32767
-5.29914
-5.2782
-5.26425
-5.25664
-5.25465
-5.25756
-5.26461
-5.27511
-5.28837
-5.30378
-5.32075
-5.33877
-5.35735
-5.37621
-5.38596
3.68351
3.63008
2.64403
1.86288
0.758358
-0.702038
0
0
0
-5.76964
-5.86326
-5.56803
-5.30721
-5.12952
-5.02036
-4.95528
-4.9168
-4.89523
-4.88534
-4.88429
-4.89037
-4.90245
-4.91962
-4.94109
-4.96612
-4.99402
-5.02416
-5.05595
-5.08886
-5.12239
-5.15611
-5.18958
-5.2224
-5.25425
-5.27018
4.28349
4.27092
4.20437
4.04555
2.83523
0.481087
0
0
0
-5.56784
-5.36427
-4.96381
-4.66721
-4.50367
-4.42508
-4.40036
-4.40287
-4.42072
-4.44819
-4.48229
-4.52128
-4.56399
-4.60954
-4.65721
-4.70636
-4.75646
-4.80704
-4.85769
-4.90803
-4.95775
-5.00651
-5.05403
-5.09998
-5.14408
-5.16592
4.80356
4.77832
4.7419
4.68012
4.48856
2.33181
0
0
0
-5.26013
-4.52042
-4.02727
-3.86073
-3.90504
-3.88396
-3.91676
-3.96713
-4.02523
-4.08759
-4.15264
-4.21942
-4.28726
-4.35565
-4.42414
-4.49234
-4.55992
-4.62663
-4.69224
-4.75657
-4.8194
-4.88054
-4.93982
-4.99703
-5.05193
-5.07906
5.24373
1.95973
1.8611
1.72117
1.50153
1.13578
0.0454577
-0.0287523
-0.0776565
-3.25751
-3.36899
-2.76131
-2.75691
-3.38073
-3.48503
-3.58018
-3.67009
-3.75742
-3.84329
-3.92816
-4.01216
-4.09531
-4.17755
-4.25875
-4.33873
-4.41737
-4.49454
-4.57015
-4.64408
-4.71609
-4.78611
-4.85403
-4.9198
-4.98339
-5.01492
5.60401
-1.97877
-2.07979
-2.20445
-2.37399
-2.56438
-2.84542
-2.99201
-3.09661
-3.18503
-3.16104
-2.931
-3.00128
-3.31257
-3.38928
-3.47663
-3.56425
-3.65126
-3.73802
-3.82481
-3.91164
-3.99847
-4.08509
-4.17113
-4.25629
-4.34032
-4.42283
-4.50302
-4.58023
-4.65444
-4.72576
-4.79432
-4.86049
-4.92493
-4.95712
5.88433
-2.99705
-3.03666
-3.05325
-3.06832
-3.0773
-3.0942
-3.10276
-3.10117
-3.0922
-3.07068
-3.02837
-3.08493
-3.21086
-3.29564
-3.3805
-3.46654
-3.55379
-3.64215
-3.73146
-3.82131
-3.91093
-3.99944
-4.08644
-4.1716
-4.25445
-4.33479
-4.41303
-4.4896
-4.56448
-4.63753
-4.70878
-4.77817
-4.84566
-4.87923
6.08462
-3.1261
-3.15159
-3.14549
-3.13321
-3.11563
-3.09783
-3.08146
-3.06602
-3.05292
-3.04426
-3.04734
-3.08749
-3.15755
-3.23192
-3.30976
-3.39071
-3.47405
-3.55899
-3.6448
-3.73089
-3.81712
-3.90347
-3.9896
-4.07509
-4.15973
-4.24334
-4.32554
-4.40607
-4.48478
-4.56155
-4.63628
-4.70893
-4.77947
-4.81454
6.20483
-3.12962
-3.1523
-3.14218
-3.12607
-3.10562
-3.08379
-3.063
-3.04502
-3.03243
-3.02924
-3.04171
-3.07749
-3.134
-3.20191
-3.27664
-3.35591
-3.43844
-3.52338
-3.61001
-3.69768
-3.78573
-3.87362
-3.96094
-4.04732
-4.13249
-4.21623
-4.29831
-4.3786
-4.457
-4.53347
-4.60798
-4.68051
-4.7511
-4.78624
6.24493
-3.13435
-3.1563
-3.14498
-3.12745
-3.1053
-3.08095
-3.05686
-3.03543
-3.01994
-3.01517
-3.02749
-3.06262
-3.11847
-3.18746
-3.26437
-3.34628
-3.43152
-3.51899
-3.60788
-3.69748
-3.78717
-3.87642
-3.9648
-4.05192
-4.13749
-4.22131
-4.30319
-4.38304
-4.46082
-4.53653
-4.61019
-4.68188
-4.75167
-4.78644
6.20485
-3.15626
-3.17849
-3.16725
-3.1491
-3.12539
-3.09876
-3.07135
-3.04465
-3.02136
-3.00662
-3.01028
-3.04694
-3.11265
-3.19098
-3.27551
-3.3634
-3.45325
-3.54418
-3.63559
-3.72693
-3.81775
-3.90763
-3.99624
-4.08325
-4.16844
-4.25163
-4.3327
-4.41157
-4.48824
-4.56275
-4.63517
-4.7056
-4.77416
-4.80833
6.08465
-3.18114
-3.2059
-3.1979
-3.1821
-3.15879
-3.13248
-3.10414
-3.07244
-3.03848
-3.00417
-2.98121
-3.02395
-3.12145
-3.219
-3.31616
-3.41262
-3.50814
-3.6026
-3.69595
-3.78806
-3.87879
-3.96797
-4.0554
-4.14092
-4.22439
-4.3057
-4.38479
-4.46164
-4.53627
-4.60877
-4.67921
-4.74773
-4.81449
-4.84779
5.88436
-3.07922
-3.11794
-3.13216
-3.14291
-3.14499
-3.15161
-3.14513
-3.12123
-3.08204
-3.01686
-2.90367
-2.98107
-3.18617
-3.301
-3.40949
-3.51263
-3.61122
-3.70623
-3.79842
-3.88827
-3.97601
-4.06175
-4.14548
-4.22717
-4.30678
-4.38426
-4.45961
-4.53285
-4.60404
-4.67326
-4.74062
-4.80628
-4.87039
-4.90242
5.60403
-2.07231
-2.17216
-2.29401
-2.45919
-2.64304
-2.9151
-3.04856
-3.12535
-3.18633
-3.1174
-2.63394
-2.73891
-3.30059
-3.41123
-3.53123
-3.64274
-3.74557
-3.8417
-3.9328
-4.01995
-4.10387
-4.18501
-4.26364
-4.33995
-4.41406
-4.48606
-4.55605
-4.62413
-4.69039