# vtk DataFile Version 3.0
vtk output445
ASCII
DATASET STRUCTURED_GRID
DIMENSIONS 51 21 1
POINTS 1071 float
0 0 0
0.2 0 0
0.4 0 0
0.6 0 0
0.8 0 0
1 0 0
1.2 0 0
1.4 0 0
1.6 0 0
1.8 0 0
2 0 0
2.2 0 0
2.4 0 0
2.6 0 0
2.8 0 0
3 0 0
3.2 0 0
3.4 0 0
3.6 0 0
3.8 0 0
4 0 0
4.2 0 0
4.4 0 0
4.6 0 0
4.8 0 0
5 0 0
5.2 0 0
5.4 0 0
5.6 0 0
5.8 0 0
6 0 0
6.2 0 0
6.4 0 0
6.6 0 0
6.8 0 0
7 0 0
7.2 0 0
7.4 0 0
7.6 0 0
7.8 0 0
8 0 0
8.2 0 0
8.4 0 0
8.6 0 0
8.8 0 0
9 0 0
9.2 0 0
9.4 0 0
9.6 0 0
9.8 0 0
10 0 0
0 0.05 0
0.2 0.05 0
0.4 0.05 0
0.6 0.05 0
0.8 0.05 0
1 0.05 0
1.2 0.05 0
1.4 0.05 0
1.6 0.05 0
1.8 0.05 0
2 0.05 0
2.2 0.05 0
2.4 0.05 0
2.6 0.05 0
2.8 0.05 0
3 0.05 0
3.2 0.05 0
3.4 0.05 0
3.6 0.05 0
3.8 0.05 0
4 0.05 0
4.2 0.05 0
4.4 0.05 0
4.6 0.05 0
4.8 0.05 0
5 0.05 0
5.2 0.05 0
5.4 0.05 0
5.6 0.05 0
5.8 0.05 0
6 0.05 0
6.2 0.05 0
6.4 0.05 0
6.6 0.05 0
6.8 0.05 0
7 0.05 0
7.2 0.05 0
7.4 0.05 0
7.6 0.05 0
7.8 0.05 0
8 0.05 0
8.2 0.05 0
8.4 0.05 0
8.6 0.05 0
8.8 0.05 0
9 0.05 0
9.2 0.05 0
9.4 0.05 0
9.6 0.05 0
9.8 0.05 0
10 0.05 0
0 0.1 0
0.2 0.1 0
0.4 0.1 0
0.6 0.1 0
0.8 0.1 0
1 0.1 0
1.2 0.1 0
1.4 0.1 0
1.6 0.1 0
1.8 0.1 0
2 0.1 0
2.2 0.1 0
2.4 0.1 0
2.6 0.1 0
2.8 0.1 0
3 0.1 0
3.2 0.1 0
3.4 0.1 0
3.6 0.1 0
3.8 0.1 0
4 0.1 0
4.2 0.1 0
4.4 0.1 0
4.6 0.1 0
4.8 0.1 0
5 0.1 0
5.2 0.1 0
5.4 0.1 0
5.6 0.1 0
5.8 0.1 0
6 0.1 0
6.2 0.1 0
6.4 0.1 0
6.6 0.1 0
6.8 0.1 0
7 0.1 0
7.2 0.1 0
7.4 0.1 0
7.6 0.1 0
7.8 0.1 0
8 0.1 0
8.2 0.1 0
8.4 0.1 0
8.6 0.1 0
8.8 0.1 0
9 0.1 0
9.2 0.1 0
9.4 0.1 0
9.6 0.1 0
9.8 0.1 0
10 0.1 0
0 0.15 0
0.2 0.15 0
0.4 0.15 0
0.6 0.15 0
0.8 0.15 0
1 0.15 0
1.2 0.15 0
1.4 0.15 0
1.6 0.15 0
1.8 0.15 0
2 0.15 0
2.2 0.15 0
2.4 0.15 0
2.6 0.15 0
2.8 0.15 0
3 0.15 0
3.2 0.15 0
3.4 0.15 0
3.6 0.15 0
3.8 0.15 0
4 0.15 0
4.2 0.15 0
4.4 0.15 0
4.6 0.15 0
4.8 0.15 0
5 0.15 0
5.2 0.15 0
5.4 0.15 0
5.6 0.15 0
5.8 0.15 0
6 0.15 0
6.2 0.15 0
6.4 0.15 0
6.6 0.15 0
6.8 0.15 0
7 0.15 0
7.2 0.15 0
7.4 0.15 0
7.6 0.15 0
7.8 0.15 0
8 0.15 0
8.2 0.15 0
8.4 0.15 0
8.6 0.15 0
8.8 0.15 0
9 0.15 0
9.2 0.15 0
9.4 0.15 0
9.6 0.15 0
9.8 0.15 0
10 0.15 0
0 0.2 0
0.2 0.2 0
0.4 0.2 0
0.6 0.2 0
0.8 0.2 0
1 0.2 0
1.2 0.2 0
1.4 0.2 0
1.6 0.2 0
1.8 0.2 0
2 0.2 0
2.2 0.2 0
2.4 0.2 0
2.6 0.2 0
2.8 0.2 0
3 0.2 0
3.2 0.2 0
3.4 0.2 0
3.6 0.2 0
3.8 0.2 0
4 0.2 0
4.2 0.2 0
4.4 0.2 0
4.6 0.2 0
4.8 0.2 0
5 0.2 0
5.2 0.2 0
5.4 0.2 0
5.6 0.2 0
5.8 0.2 0
6 0.2 0
6.2 0.2 0
6.4 0.2 0
6.6 0.2 0
6.8 0.2 0
7 0.2 0
7.2 0.2 0
7.4 0.2 0
7.6 0.2 0
7.8 0.2 0
8 0.2 0
8.2 0.2 0
8.4 0.2 0
8.6 0.2 0
8.8 0.2 0
9 0.2 0
9.2 0.2 0
9.4 0.2 0
9.6 0.2 0
9.8 0.2 0
10 0.2 0
0 0.25 0
0.2 0.25 0
0.4 0.25 0
0.6 0.25 0
0.8 0.25 0
1 0.25 0
1.2 0.25 0
1.4 0.25 0
1.6 0.25 0
1.8 0.25 0
2 0.25 0
2.2 0.25 0
2.4 0.25 0
2.6 0.25 0
2.8 0.25 0
3 0.25 0
3.2 0.25 0
3.4 0.25 0
3.6 0.25 0
3.8 0.25 0
4 0.25 0
4.2 0.25 0
4.4 0.25 0
4.6 0.25 0
4.8 0.25 0
5 0.25 0
5.2 0.25 0
5.4 0.25 0
5.6 0.25 0
5.8 0.25 0
6 0.25 0
6.2 0.25 0
6.4 0.25 0
6.6 0.25 0
6.8 0.25 0
7 0.25 0
7.2 0.25 0
7.4 0.25 0
7.6 0.25 0
7.8 0.25 0
8 0.25 0
8.2 0.25 0
8.4 0.25 0
8.6 0.25 0
8.8 0.25 0
9 0.25 0
9.2 0.25 0
9.4 0.25 0
9.6 0.25 0
9.8 0.25 0
10 0.25 0
0 0.3 0
0.2 0.3 0
0.4 0.3 0
0.6 0.3 0
0.8 0.3 0
1 0.3 0
1.2 0.3 0
1.4 0.3 0
1.6 0.3 0
1.8 0.3 0
2 0.3 0
2.2 0.3 0
2.4 0.3 0
2.6 0.3 0
2.8 0.3 0
3 0.3 0
3.2 0.3 0
3.4 0.3 0
3.6 0.3 0
3.8 0.3 0
4 0.3 0
4.2 0.3 0
4.4 0.3 0
4.6 0.3 0
4.8 0.3 0
5 0.3 0
5.2 0.3 0
5.4 0.3 0
5.6 0.3 0
5.8 0.3 0
6 0.3 0
6.2 0.3 0
6.4 0.3 0
6.6 0.3 0
6.8 0.3 0
7 0.3 0
7.2 0.3 0
7.4 0.3 0
7.6 0.3 0
7.8 0.3 0
8 0.3 0
8.2 0.3 0
8.4 0.3 0
8.6 0.3 0
8.8 0.3 0
9 0.3 0
9.2 0.3 0
9.4 0.3 0
9.6 0.3 0
9.8 0.3 0
10 0.3 0
0 0.35 0
0.2 0.35 0
0.4 0.35 0
0.6 0.35 0
0.8 0.35 0
1 0.35 0
1.2 0.35 0
1.4 0.35 0
1.6 0.35 0
1.8 0.35 0
2 0.35 0
2.2 0.35 0
2.4 0.35 0
2.6 0.35 0
2.8 0.35 0
3 0.35 0
3.2 0.35 0
3.4 0.35 0
3.6 0.35 0
3.8 0.35 0
4 0.35 0
4.2 0.35 0
4.4 0.35 0
4.6 0.35 0
4.8 0.35 0
5 0.35 0
5.2 0.35 0
5.4 0.35 0
5.6 0.35 0
5.8 0.35 0
6 0.35 0
6.2 0.35 0
6.4 0.35 0
6.6 0.35 0
6.8 0.35 0
7 0.35 0
7.2 0.35 0
7.4 0.35 0
7.6 0.35 0
7.8 0.35 0
8 0.35 0
8.2 0.35 0
8.4 0.35 0
8.6 0.35 0
8.8 0.35 0
9 0.35 0
9.2 0.35 0
9.4 0.35 0
9.6 0.35 0
9.8 0.35 0
10 0.35 0
0 0.4 0
0.2 0.4 0
0.4 0.4 0
0.6 0.4 0
0.8 0.4 0
1 0.4 0
1.2 0.4 0
1.4 0.4 0
1.6 0.4 0
1.8 0.4 0
2 0.4 0
2.2 0.4 0
2.4 0.4 0
2.6 0.4 0
2.8 0.4 0
3 0.4 0
3.2 0.4 0
3.4 0.4 0
3.6 0.4 0
3.8 0.4 0
4 0.4 0
4.2 0.4 0
4.4 0.4 0
4.6 0.4 0
4.8 0.4 0
5 0.4 0
5.2 0.4 0
5.4 0.4 0
5.6 0.4 0
5.8 0.4 0
6 0.4 0
6.2 0.4 0
6.4 0.4 0
6.6 0.4 0
6.8 0.4 0
7 0.4 0
7.2 0.4 0
7.4 0.4 0
7.6 0.4 0
7.8 0.4 0
8 0.4 0
8.2 0.4 0
8.4 0.4 0
8.6 0.4 0
8.8 0.4 0
9 0.4 0
9.2 0.4 0
9.4 0.4 0
9.6 0.4 0
9.8 0.4 0
10 0.4 0
0 0.45 0
0.2 0.45 0
0.4 0.45 0
0.6 0.45 0
0.8 0.45 0
1 0.45 0
1.2 0.45 0
1.4 0.45 0
1.6 0.45 0
1.8 0.45 0
2 0.45 0
2.2 0.45 0
2.4 0.45 0
2.6 0.45 0
2.8 0.45 0
3 0.45 0
3.2 0.45 0
3.4 0.45 0
3.6 0.45 0
3.8 0.45 0
4 0.45 0
4.2 0.45 0
4.4 0.45 0
4.6 0.45 0
4.8 0.45 0
5 0.45 0
5.2 0.45 0
5.4 0.45 0
5.6 0.45 0
5.8 0.45 0
6 0.45 0
6.2 0.45 0
6.4 0.45 0
6.6 0.45 0
6.8 0.45 0
7 0.45 0
7.2 0.45 0
7.4 0.45 0
7.6 0.45 0
7.8 0.45 0
8 0.45 0
8.2 0.45 0
8.4 0.45 0
8.6 0.45 0
8.8 0.45 0
9 0.45 0
9.2 0.45 0
9.4 0.45 0
9.6 0.45 0
9.8 0.45 0
10 0.45 0
0 0.5 0
0.2 0.5 0
0.4 0.5 0
0.6 0.5 0
0.8 0.5 0
1 0.5 0
1.2 0.5 0
1.4 0.5 0
1.6 0.5 0
1.8 0.5 0
2 0.5 0
2.2 0.5 0
2.4 0.5 0
2.6 0.5 0
2.8 0.5 0
3 0.5 0
3.2 0.5 0
3.4 0.5 0
3.6 0.5 0
3.8 0.5 0
4 0.5 0
4.2 0.5 0
4.4 0.5 0
4.6 0.5 0
4.8 0.5 0
5 0.5 0
5.2 0.5 0
5.4 0.5 0
5.6 0.5 0
5.8 0.5 0
6 0.5 0
6.2 0.5 0
6.4 0.5 0
6.6 0.5 0
6.8 0.5 0
7 0.5 0
7.2 0.5 0
7.4 0.5 0
7.6 0.5 0
7.8 0.5 0
8 0.5 0
8.2 0.5 0
8.4 0.5 0
8.6 0.5 0
8.8 0.5 0
9 0.5 0
9.2 0.5 0
9.4 0.5 0
9.6 0.5 0
9.8 0.5 0
10 0.5 0
0 0.55 0
0.2 0.55 0
0.4 0.55 0
0.6 0.55 0
0.8 0.55 0
1 0.55 0
1.2 0.55 0
1.4 0.55 0
1.6 0.55 0
1.8 0.55 0
2 0.55 0
2.2 0.55 0
2.4 0.55 0
2.6 0.55 0
2.8 0.55 0
3 0.55 0
3.2 0.55 0
3.4 0.55 0
3.6 0.55 0
3.8 0.55 0
4 0.55 0
4.2 0.55 0
4.4 0.55 0
4.6 0.55 0
4.8 0.55 0
5 0.55 0
5.2 0.55 0
5.4 0.55 0
5.6 0.55 0
5.8 0.55 0
6 0.55 0
6.2 0.55 0
6.4 0.55 0
6.6 0.55 0
6.8 0.55 0
7 0.55 0
7.2 0.55 0
7.4 0.55 0
7.6 0.55 0
7.8 0.55 0
8 0.55 0
8.2 0.55 0
8.4 0.55 0
8.6 0.55 0
8.8 0.55 0
9 0.55 0
9.2 0.55 0
9.4 0.55 0
9.6 0.55 0
9.8 0.55 0
10 0.55 0
0 0.6 0
0.2 0.6 0
0.4 0.6 0
0.6 0.6 0
0.8 0.6 0
1 0.6 0
1.2 0.6 0
1.4 0.6 0
1.6 0.6 0
1.8 0.6 0
2 0.6 0
2.2 0.6 0
2.4 0.6 0
2.6 0.6 0
2.8 0.6 0
3 0.6 0
3.2 0.6 0
3.4 0.6 0
3.6 0.6 0
3.8 0.6 0
4 0.6 0
4.2 0.6 0
4.4 0.6 0
4.6 0.6 0
4.8 0.6 0
5 0.6 0
5.2 0.6 0
5.4 0.6 0
5.6 0.6 0
5.8 0.6 0
6 0.6 0
6.2 0.6 0
6.4 0.6 0
6.6 0.6 0
6.8 0.6 0
7 0.6 0
7.2 0.6 0
7.4 0.6 0
7.6 0.6 0
7.8 0.6 0
8 0.6 0
8.2 0.6 0
8.4 0.6 0
8.6 0.6 0
8.8 0.6 0
9 0.6 0
9.2 0.6 0
9.4 0.6 0
9.6 0.6 0
9.8 0.6 0
10 0.6 0
0 0.65 0
0.2 0.65 0
0.4 0.65 0
0.6 0.65 0
0.8 0.65 0
1 0.65 0
1.2 0.65 0
1.4 0.65 0
1.6 0.65 0
1.8 0.65 0
2 0.65 0
2.2 0.65 0
2.4 0.65 0
2.6 0.65 0
2.8 0.65 0
3 0.65 0
3.2 0.65 0
3.4 0.65 0
3.6 0.65 0
3.8 0.65 0
4 0.65 0
4.2 0.65 0
4.4 0.65 0
4.6 0.65 0
4.8 0.65 0
5 0.65 0
5.2 0.65 0
5.4 0.65 0
5.6 0.65 0
5.8 0.65 0
6 0.65 0
6.2 0.65 0
6.4 0.65 0
6.6 0.65 0
6.8 0.65 0
7 0.65 0
7.2 0.65 0
7.4 0.65 0
7.6 0.65 0
7.8 0.65 0
8 0.65 0
8.2 0.65 0
8.4 0.65 0
8.6 0.65 0
8.8 0.65 0
9 0.65 0
9.2 0.65 0
9.4 0.65 0
9.6 0.65 0
9.8 0.65 0
10 0.65 0
0 0.7 0
0.2 0.7 0
0.4 0.7 0
0.6 0.7 0
0.8 0.7 0
1 0.7 0
1.2 0.7 0
1.4 0.7 0
1.6 0.7 0
1.8 0.7 0
2 0.7 0
2.2 0.7 0
2.4 0.7 0
2.6 0.7 0
2.8 0.7 0
3 0.7 0
3.2 0.7 0
3.4 0.7 0
3.6 0.7 0
3.8 0.7 0
4 0.7 0
4.2 0.7 0
4.4 0.7 0
4.6 0.7 0
4.8 0.7 0
5 0.7 0
5.2 0.7 0
5.4 0.7 0
5.6 0.7 0
5.8 0.7 0
6 0.7 0
6.2 0.7 0
6.4 0.7 0
6.6 0.7 0
6.8 0.7 0
7 0.7 0
7.2 0.7 0
7.4 0.7 0
7.6 0.7 0
7.8 0.7 0
8 0.7 0
8.2 0.7 0
8.4 0.7 0
8.6 0.7 0
8.8 0.7 0
9 0.7 0
9.2 0.7 0
9.4 0.7 0
9.6 0.7 0
9.8 0.7 0
10 0.7 0
0 0.75 0
0.2 0.75 0
0.4 0.75 0
0.6 0.75 0
0.8 0.75 0
1 0.75 0
1.2 0.75 0
1.4 0.75 0
1.6 0.75 0
1.8 0.75 0
2 0.75 0
2.2 0.75 0
2.4 0.75 0
2.6 0.75 0
2.8 0.75 0
3 0.75 0
3.2 0.75 0
3.4 0.75 0
3.6 0.75 0
3.8 0.75 0
4 0.75 0
4.2 0.75 0
4.4 0.75 0
4.6 0.75 0
4.8 0.75 0
5 0.75 0
5.2 0.75 0
5.4 0.75 0
5.6 0.75 0
5.8 0.75 0
6 0.75 0
6.2 0.75 0
6.4 0.75 0
6.6 0.75 0
6.8 0.75 0
7 0.75 0
7.2 0.75 0
7.4 0.75 0
7.6 0.75 0
7.8 0.75 0
8 0.75 0
8.2 0.75 0
8.4 0.75 0
8.6 0.75 0
8.8 0.75 0
9 0.75 0
9.2 0.75 0
9.4 0.75 0
9.6 0.75 0
9.8 0.75 0
10 0.75 0
0 0.8 0
0.2 0.8 0
0.4 0.8 0
0.6 0.8 0
0.8 0.8 0
1 0.8 0
1.2 0.8 0
1.4 0.8 0
1.6 0.8 0
1.8 0.8 0
2 0.8 0
2.2 0.8 0
2.4 0.8 0
2.6 0.8 0
2.8 0.8 0
3 0.8 0
3.2 0.8 0
3.4 0.8 0
3.6 0.8 0
3.8 0.8 0
4 0.8 0
4.2 0.8 0
4.4 0.8 0
4.6 0.8 0
4.8 0.8 0
5 0.8 0
5.2 0.8 0
5.4 0.8 0
5.6 0.8 0
5.8 0.8 0
6 0.8 0
6.2 0.8 0
6.4 0.8 0
6.6 0.8 0
6.8 0.8 0
7 0.8 0
7.2 0.8 0
7.4 0.8 0
7.6 0.8 0
7.8 0.8 0
8 0.8 0
8.2 0.8 0
8.4 0.8 0
8.6 0.8 0
8.8 0.8 0
9 0.8 0
9.2 0.8 0
9.4 0.8 0
9.6 0.8 0
9.8 0.8 0
10 0.8 0
0 0.85 0
0.2 0.85 0
0.4 0.85 0
0.6 0.85 0
0.8 0.85 0
1 0.85 0
1.2 0.85 0
1.4 0.85 0
1.6 0.85 0
1.8 0.85 0
2 0.85 0
2.2 0.85 0
2.4 0.85 0
2.6 0.85 0
2.8 0.85 0
3 0.85 0
3.2 0.85 0
3.4 0.85 0
3.6 0.85 0
3.8 0.85 0
4 0.85 0
4.2 0.85 0
4.4 0.85 0
4.6 0.85 0
4.8 0.85 0
5 0.85 0
5.2 0.85 0
5.4 0.85 0
5.6 0.85 0
5.8 0.85 0
6 0.85 0
6.2 0.85 0
6.4 0.85 0
6.6 0.85 0
6.8 0.85 0
7 0.85 0
7.2 0.85 0
7.4 0.85 0
7.6 0.85 0
7.8 0.85 0
8 0.85 0
8.2 0.85 0
8.4 0.85 0
8.6 0.85 0
8.8 0.85 0
9 0.85 0
9.2 0.85 0
9.4 0.85 0
9.6 0.85 0
9.8 0.85 0
10 0.85 0
0 0.9 0
0.2 0.9 0
0.4 0.9 0
0.6 0.9 0
0.8 0.9 0
1 0.9 0
1.2 0.9 0
1.4 0.9 0
1.6 0.9 0
1.8 0.9 0
2 0.9 0
2.2 0.9 0
2.4 0.9 0
2.6 0.9 0
2.8 0.9 0
3 0.9 0
3.2 0.9 0
3.4 0.9 0
3.6 0.9 0
3.8 0.9 0
4 0.9 0
4.2 0.9 0
4.4 0.9 0
4.6 0.9 0
4.8 0.9 0
5 0.9 0
5.2 0.9 0
5.4 0.9 0
5.6 0.9 0
5.8 0.9 0
6 0.9 0
6.2 0.9 0
6.4 0.9 0
6.6 0.9 0
6.8 0.9 0
7 0.9 0
7.2 0.9 0
7.4 0.9 0
7.6 0.9 0
7.8 0.9 0
8 0.9 0
8.2 0.9 0
8.4 0.9 0
8.6 0.9 0
8.8 0.9 0
9 0.9 0
9.2 0.9 0
9.4 0.9 0
9.6 0.9 0
9.8 0.9 0
10 0.9 0
0 0.95 0
0.2 0.95 0
0.4 0.95 0
0.6 0.95 0
0.8 0.95 0
1 0.95 0
1.2 0.95 0
1.4 0.95 0
1.6 0.95 0
1.8 0.95 0
2 0.95 0
2.2 0.95 0
2.4 0.95 0
2.6 0.95 0
2.8 0.95 0
3 0.95 0
3.2 0.95 0
3.4 0.95 0
3.6 0.95 0
3.8 0.95 0
4 0.95 0
4.2 0.95 0
4.4 0.95 0
4.6 0.95 0
4.8 0.95 0
5 0.95 0
5.2 0.95 0
5.4 0.95 0
5.6 0.95 0
5.8 0.95 0
6 0.95 0
6.2 0.95 0
6.4 0.95 0
6.6 0.95 0
6.8 0.95 0
7 0.95 0
7.2 0.95 0
7.4 0.95 0
7.6 0.95 0
7.8 0.95 0
8 0.95 0
8.2 0.95 0
8.4 0.95 0
8.6 0.95 0
8.8 0.95 0
9 0.95 0
9.2 0.95 0
9.4 0.95 0
9.6 0.95 0
9.8 0.95 0
10 0.95 0
0 1 0
0.2 1 0
0.4 1 0
0.6 1 0
0.8 1 0
1 1 0
1.2 1 0
1.4 1 0
1.6 1 0
1.8 1 0
2 1 0
2.2 1 0
2.4 1 0
2.6 1 0
2.8 1 0
3 1 0
3.2 1 0
3.4 1 0
3.6 1 0
3.8 1 0
4 1 0
4.2 1 0
4.4 1 0
4.6 1 0
4.8 1 0
5 1 0
5.2 1 0
5.4 1 0
5.6 1 0
5.8 1 0
6 1 0
6.2 1 0
6.4 1 0
6.6 1 0
6.8 1 0
7 1 0
7.2 1 0
7.4 1 0
7.6 1 0
7.8 1 0
8 1 0
8.2 1 0
8.4 1 0
8.6 1 0
8.8 1 0
9 1 0
9.2 1 0
9.4 1 0
9.6 1 0
9.8 1 0
10 1 0

CELL_DATA 1000
SCALARS phi float
LOOKUP_TABLE default 
4.711
4.711
4.711
4.711
4.711
4.711
4.711
4.711
4.711
4.711
4.711
4.711
4.711
4.711
4.711
4.711
4.711
4.711
4.711
4.711
4.711
4.711
4.711
4.711
4.711
4.711
4.711
4.711
4.711
4.711
4.711
4.711
4.711
4.711
4.711
4.711
4.711
4.711
4.711
4.711
4.711
4.711
4.711
4.711
4.711
4.711
4.711
4.711
4.711
4.711
4.711
4.711
4.711
4.711
4.711
4.711
4.711
4.711
4.711
4.711
4.711
4.711
4.711
4.711
4.711
4.711
4.711
4.711
4.711
4.711
4.711
4.711
4.711
4.711
4.711
4.711
4.711
4.711
4.711
4.711
4.711
4.711
4.711
4.711
4.711
4.711
4.711
4.711
4.711
4.711
4.711
4.711
4.711
4.711
4.711
4.711
4.711
4.711
4.711
4.711
4.711
4.711
4.711
4.711
4.711
4.711
4.711
4.711
4.711
4.711
4.711
4.711
4.711
4.711
4.711
4.711
4.711
4.711
4.711
4.711
4.711
4.711
4.711
4.711
4.711
4.711
4.711
4.711
4.711
4.711
4.711
4.711
4.711
4.711
4.711
4.711
4.711
4.711
4.711
4.711
4.711
4.711
4.711
4.711
4.711
4.711
4.711
4.711
4.711
4.711
4.711
4.711
4.711
4.711
4.711
4.711
4.711
4.711
4.711
4.711
4.711
4.711
4.711
4.711
4.711
4.711
4.711
4.711
4.711
4.711
4.711
4.711
4.711
4.711
4.711
4.711
4.711
4.711
4.711
4.711
4.711
4.711
4.711
4.711
4.711
4.711
4.711
4.711
4.711
4.711
4.711
4.711
4.711
4.711
4.711
4.711
4.711
4.711
4.711
4.711
4.711
4.711
4.711
4.711
4.711
4.711
4.711
4.711
4.711
4.711
4.711
4.711
4.711
4.711
4.711
4.711
4.711
4.711
4.711
4.711
4.711
4.711
4.711
4.711
4.711
4.711
4.711
4.711
4.711
4.711
4.711
4.711
4.711
4.711
4.711
4.711
4.711
4.711
4.711
4.711
4.711
4.711
4.711
4.711
4.711
4.711
4.711
4.711
4.711
4.711
4.711
4.711
4.711
4.711
4.711
4.711
4.711
4.711
4.711
4.711
4.711
4.711
4.711
4.711
4.711
4.711
4.711
4.711
4.711
4.711
4.711
4.711
4.711
4.711
4.711
4.711
4.711
4.711
4.711
4.711
4.711
4.711
4.711
4.711
4.711
4.711
4.711
4.711
4.711
4.711
4.711
4.711
4.711
4.711
4.711
4.711
4.711
4.711
4.711
4.711
4.711
4.711
4.711
4.711
4.711
4.711
4.711
4.711
4.711
4.711
4.711
4.711
4.711
4.711
4.711
4.711
4.711
4.711
4.711
4.711
4.711
4.711
4.711
4.711
4.711
4.711
4.711
4.711
4.711
4.711
4.711
4.711
4.711
4.711
4.711
4.711
4.711
4.711
4.711
4.711
4.711
4.711
4.711
4.711
4.711
4.711
4.711
4.711
4.711
4.711
4.711
4.711
4.711
4.711
4.711
4.711
4.711
4.711
4.711
4.711
4.711
4.711
4.711
4.711
4.711
4.711
4.711
4.711
4.711
4.711
4.711
4.711
4.711
4.711
4.711
4.711
4.711
4.711
4.711
4.711
4.711
4.711
4.711
4.711
4.711
4.711
4.711
4.711
4.711
4.711
4.711
4.711
4.711
4.711
4.711
4.711
4.711
4.711
4.711
4.711
4.711
4.711
4.711
4.711
4.711
4.711
4.711
4.711
4.711
4.711
4.711
4.711
4.711
4.711
4.711
4.711
4.711
4.711
4.711
4.711
4.711
4.711
4.711
4.711
4.711
4.711
4.711
4.711
4.711
4.711
4.711
4.711
4.711
4.711
4.711
4.711
4.711
4.711
4.711
4.711
4.711
4.711
4.711
4.711
4.711
4.711
4.711
4.711
4.711
4.711
4.711
4.711
4.711
4.711
4.711
4.711
4.711
4.711
4.711
4.711
4.711
4.711
4.711
4.711
4.711
4.711
4.711
4.711
4.711
4.711
4.711
4.711
4.711
4.711
4.711
4.711
4.711
4.711
4.711
4.711
4.711
4.711
4.711
4.711
4.711
4.711
4.711
4.711
4.711
4.711
4.711
4.711
4.711
4.711
4.711
4.711
4.711
4.711
4.711
4.711
4.711
4.711
4.711
4.711
4.711
4.711
4.711
4.711
4.711
4.711
4.711
4.711
4.711
4.711
4.711
4.711
4.711
4.711
4.711
4.711
4.711
4.711
4.711
4.711
4.711
4.711
4.711
4.711
4.711
4.711
4.711
4.711
4.711
4.711
4.711
4.711
4.711
4.711
4.711
4.711
4.711
4.711
4.711
4.711
4.711
4.711
4.711
4.711
4.711
4.711
4.711
4.711
4.711
4.711
4.711
4.711
4.711
4.711
4.711
4.711
4.711
4.711
4.711
4.711
4.711
4.711
4.711
4.711
4.711
4.711
4.711
4.711
4.711
4.711
4.711
4.711
4.711
4.711
4.711
4.711
4.711
4.711
4.711
4.711
4.711
4.711
4.711
4.711
4.711
4.711
4.711
4.711
4.711
4.711
4.711
4.711
4.711
4.711
4.711
4.711
4.711
4.711
4.711
4.711
4.711
4.711
4.711
4.711
4.711
4.711
4.711
4.711
4.711
4.711
4.711
4.711
4.711
4.711
4.711
4.711
4.711
4.711
4.711
4.711
4.711
4.711
4.711
4.711
4.711
4.711
4.711
4.711
4.711
4.711
4.711
4.711
4.711
4.711
4.711
4.711
4.711
4.711
4.711
4.711
4.711
4.711
4.711
4.711
4.711
4.711
4.711
4.711
4.711
4.711
4.711
4.711
4.711
4.711
4.711
4.711
4.711
4.711
4.711
4.711
4.711
4.711
4.711
4.711
4.711
4.711
4.711
4.711
4.711
4.711
4.711
4.711
4.711
4.711
4.711
4.711
4.711
4.711
4.711
4.711
4.711
4.711
4.711
4.711
4.711
4.711
4.711
4.711
4.711
4.711
4.711
4.711
4.711
4.711
4.711
4.711
4.711
4.711
4.711
4.711
4.711
4.711
4.711
4.711
4.711
4.711
4.711
4.711
4.711
4.711
4.711
4.711
4.711
4.711
4.711
4.711
4.711
4.711
4.711
4.711
4.711
4.711
4.711
4.711
4.711
4.711
4.711
4.711
4.711
4.711
4.711
4.711
4.711
4.711
4.711
4.711
4.711
4.711
4.711
4.711
4.711
4.711
4.711
4.711
4.711
4.711
4.711
4.711
4.711
4.711
4.711
4.711
4.711
4.711
4.711
4.711
4.711
4.711
4.711
4.711
4.711
4.711
4.711
4.711
4.711
4.711
4.711
4.711
4.711
4.711
4.711
4.711
4.711
4.711
4.711
4.711
4.711
4.711
4.711
4.711
4.711
4.711
4.711
4.711
4.711
4.711
4.711
4.711
4.711
4.711
4.711
4.711
4.711
4.711
4.711
4.711
4.711
4.711
4.711
4.711
4.711
4.711
4.711
4.711
4.711
4.711
4.711
4.711
4.711
4.711
4.711
4.711
4.711
4.711
4.711
4.711
4.711
4.711
4.711
4.711
4.711
4.711
4.711
4.711
4.711
4.711
4.711
4.711
4.711
4.711
4.711
4.711
4.711
4.711
4.711
4.711
4.711
4.711
4.711
4.711
4.711
4.711
4.711
4.711
4.711
4.711
4.711
4.711
4.711
4.711
4.711
4.711
4.711
4.711
4.711
4.711
4.711
4.711
4.711
4.711
4.711
4.711
4.711
4.711
4.711
4.711
4.711
4.711
4.711
4.711
4.711
4.711
4.711
4.711
4.711
4.711
4.711
4.711
4.711
4.711
4.711
4.711
4.711
4.711
4.711
4.711
4.711
4.711
4.711
4.711
4.711
4.711
4.711
4.711
4.711
4.711
4.711
4.711
4.711
4.711
4.711
4.711
4.711
4.711
4.711
4.711
4.711
4.711
4.711
4.711
4.711
4.711
4.711
4.711
4.711
4.711
4.711
4.711
4.711
4.711
4.711
4.711
4.711
4.711
4.711
4.711
4.711
4.711
4.711
4.711
4.711
4.711
4.711
4.711
4.711
4.711
4.711
4.711
4.711
4.711
4.711
4.711
4.711
4.711
4.711
4.711
4.711
4.711
4.711
4.711
4.711
4.711
4.711
4.711
4.711
4.711
4.711
4.711
4.711
4.711
4.711
4.711
4.711
4.711
4.711
4.711
4.711
4.711
4.711
4.711
4.711
4.711
4.711
4.711
4.711
4.711
4.711
4.711
4.711
4.711
4.711
4.711
4.711
4.711
4.711
4.711
4.711
4.711
4.711
4.711
4.711
4.711
4.711
4.711
4.711
4.711

SCALARS p float
LOOKUP_TABLE default 
1309.55
1309.55
1288.97
1269.36
1252.08
1239.12
1234.14
1234.14
0
0
0
0
740.769
740.769
740.769
735.496
723.57
706.997
687.636
666.748
645.092
623.091
600.967
578.826
556.714
534.644
512.617
490.63
468.676
446.749
424.846
402.961
381.092
359.234
337.385
315.542
293.704
271.869
250.036
228.206
206.379
184.556
162.734
140.915
119.097
97.2798
75.4616
53.6424
31.8221
10
1309.55
1309.55
1288.97
1269.36
1252.08
1239.12
1234.14
1234.14
0
0
0
0
740.769
740.769
740.769
735.496
723.57
706.997
687.636
666.748
645.092
623.091
600.967
578.826
556.714
534.644
512.617
490.63
468.676
446.749
424.846
402.961
381.092
359.234
337.385
315.542
293.704
271.869
250.036
228.206
206.379
184.556
162.734
140.915
119.097
97.2798
75.4616
53.6424
31.8221
10
1309.72
1309.72
1289.04
1269.53
1252.41
1239.77
1235.59
1235.59
0
0
0
0
739.649
739.649
739.649
734.467
722.659
706.247
687.047
666.297
644.751
622.835
600.775
578.682
556.605
534.561
512.555
490.582
468.639
446.721
424.824
402.944
381.079
359.224
337.377
315.536
293.699
271.865
250.033
228.204
206.378
184.554
162.733
140.914
119.097
97.2793
75.4613
53.6421
31.8219
10
1309.8
1309.8
1288.98
1269.48
1252.35
1239.67
1235.79
1235.79
0
0
0
0
738.899
738.899
738.899
733.739
721.903
705.557
686.465
665.829
644.385
622.554
600.561
578.52
556.481
534.467
512.483
490.527
468.597
446.688
424.799
402.925
381.064
359.212
337.368
315.529
293.694
271.861
250.03
228.202
206.376
184.553
162.732
140.913
119.096
97.2788
75.4608
53.6418
31.8217
10
1309.69
1309.69
1288.78
1269.19
1251.82
1238.64
1234.12
1234.12
0
0
0
0
738.584
738.584
738.584
733.234
721.222
704.863
685.845
665.312
643.971
622.231
600.312
578.33
556.337
534.357
512.398
490.462
468.547
446.65
424.769
402.902
381.046
359.199
337.358
315.521
293.687
271.856
250.026
228.199
206.373
184.551
162.731
140.912
119.095
97.2781
75.4603
53.6414
31.8214
10
1309.39
1309.39
1288.43
1268.64
1250.82
1236.62
1229.9
1229.9
0
0
0
0
738.838
738.838
738.838
732.878
720.544
704.11
685.145
664.716
643.488
621.851
600.019
578.105
556.165
534.226
512.298
490.386
468.488
446.605
424.735
402.875
381.025
359.183
337.345
315.511
293.68
271.85
250.022
228.195
206.371
184.549
162.729
140.911
119.094
97.2773
75.4597
53.641
31.8212
10
1308.95
1308.95
1287.94
1267.86
1249.36
1233.62
1222.48
1222.48
1000.46
929.897
876.262
820.71
739.781
739.781
739.781
732.598
719.813
703.26
684.341
664.024
642.924
621.405
599.673
577.84
555.963
534.072
512.181
490.296
468.419
446.552
424.694
402.844
381.001
359.164
337.33
315.5
293.671
271.843
250.016
228.191
206.367
184.546
162.727
140.91
119.093
97.2764
75.459
53.6404
31.8209
10
1308.4
1308.4
1287.32
1266.87
1247.52
1229.84
1213.54
1186.68
1000.46
929.897
876.262
820.71
749.024
744.272
740.899
732.335
718.999
702.297
683.422
663.231
642.277
620.894
599.277
577.536
555.732
533.896
512.046
490.193
468.34
446.491
424.647
402.807
380.973
359.142
337.313
315.487
293.661
271.835
250.01
228.186
206.364
184.543
162.725
140.908
119.092
97.2754
75.4582
53.6399
31.8205
10
1307.81
1307.81
1286.62
1265.72
1245.38
1225.58
1204.22
1164.97
1012.97
937.124
880.199
823.924
760.946
749.043
742.209
732.077
718.104
701.226
682.4
662.35
641.557
620.326
598.837
577.199
555.475
533.7
511.897
490.079
468.253
446.424
424.595
402.767
380.942
359.118
337.295
315.472
293.649
271.826
250.003
228.181
206.36
184.54
162.722
140.906
119.09
97.2742
75.4573
53.6392
31.8201
10
1307.19
1307.19
1285.86
1264.48
1243.09
1221.13
1195.31
1149.18
1022.87
945.016
885.308
828.734
771.865
754.061
743.672
731.827
717.146
700.074
681.301
661.403
640.786
619.719
598.368
576.841
555.202
533.492
511.739
489.958
468.16
446.352
424.539
402.725
380.909
359.092
337.275
315.457
293.637
271.817
249.996
228.175
206.355
184.537
162.72
140.904
119.089
97.2729
75.4563
53.6385
31.8197
10
1306.61
1306.61
1285.09
1263.21
1240.77
1216.77
1187.28
1137.61
1030.39
952.811
891.11
834.435
781.648
759.067
745.217
731.59
716.156
698.877
680.161
660.424
639.993
619.096
597.888
576.475
554.923
533.281
511.578
489.834
468.065
446.279
424.483
402.681
380.875
359.066
337.254
315.441
293.625
271.807
249.988
228.169
206.351
184.533
162.717
140.902
119.087
97.2717
75.4554
53.6379
31.8192
10
1306.07
1306.07
1284.35
1261.99
1238.57
1212.74
1180.38
1129.16
1036.03
959.998
897.066
840.381
790.167
763.783
746.737
731.354
715.16
697.676
679.022
659.453
639.209
618.483
597.418
576.117
554.652
533.075
511.421
489.715
467.973
446.209
424.429
402.639
380.842
359.04
337.235
315.425
293.613
271.798
249.981
228.164
206.346
184.53
162.714
140.9
119.085
97.2705
75.4545
53.6372
31.8188
10
1305.61
1305.61
1283.68
1260.87
1236.58
1209.21
1174.71
1123.07
1040.27
966.309
902.727
846.054
797.35
767.97
748.109
731.091
714.18
696.509
677.925
658.524
638.466
617.906
596.977
575.782
554.399
532.883
511.275
489.603
467.888
446.143
424.378
402.6
380.812
359.017
337.216
315.411
293.602
271.789
249.974
228.158
206.342
184.527
162.712
140.898
119.084
97.2693
75.4536
53.6366
31.8184
10
1305.24
1305.24
1283.11
1259.92
1234.9
1206.31
1170.28
1118.84
1043.52
971.641
907.778
851.087
803.172
771.451
749.22
730.77
713.23
695.409
676.907
657.671
637.788
617.383
596.579
575.482
554.172
532.711
511.144
489.504
467.812
446.084
424.333
402.564
380.784
358.995
337.2
315.398
293.592
271.781
249.968
228.154
206.339
184.524
162.71
140.896
119.083
97.2683
75.4528
53.636
31.818
10
1304.95
1304.95
1282.66
1259.18
1233.59
1204.09
1167.05
1116.06
1046.04
975.983
912.02
855.246
807.651
774.123
749.99
730.366
712.321
694.401
675.991
656.914
637.192
616.926
596.234
575.221
553.976
532.563
511.032
489.418
467.745
446.033
424.293
402.534
380.76
358.977
337.185
315.387
293.583
271.775
249.963
228.15
206.336
184.522
162.708
140.895
119.081
97.2673
75.4521
53.6355
31.8177
10
1304.71
1304.71
1282.35
1258.67
1232.7
1202.6
1164.94
1114.46
1048.05
979.378
915.355
858.408
810.836
775.943
750.369
729.862
711.459
693.498
675.194
656.265
636.686
616.541
595.943
575.002
553.81
532.438
510.936
489.345
467.69
445.99
424.26
402.508
380.74
358.961
337.173
315.377
293.575
271.769
249.959
228.146
206.333
184.519
162.706
140.893
119.08
97.2665
75.4514
53.635
31.8174
10
1304.5
1304.5
1282.17
1258.4
1232.22
1201.8
1163.87
1113.85
1049.69
981.905
917.755
860.55
812.809
776.92
750.344
729.25
710.644
692.703
674.514
655.721
636.266
616.222
595.703
574.821
553.674
532.334
510.857
489.284
467.643
445.954
424.232
402.486
380.723
358.948
337.162
315.369
293.569
271.764
249.955
228.143
206.331
184.518
162.705
140.892
119.079
97.2657
75.4508
53.6345
31.8171
10
1304.3
1304.3
1282.14
1258.35
1232.14
1201.67
1163.75
1114.1
1051.12
983.682
919.269
861.723
813.679
777.104
749.92
728.524
709.864
692.004
673.94
655.272
635.923
615.963
595.507
574.673
553.561
532.248
510.791
489.233
467.603
445.924
424.208
402.468
380.709
358.936
337.153
315.362
293.563
271.759
249.952
228.141
206.329
184.517
162.704
140.892
119.079
97.265
75.4502
53.634
31.8168
10
1304.16
1304.16
1282.22
1258.52
1232.43
1202.16
1164.5
1115.18
1052.48
984.865
920.009
862.022
813.569
776.559
749.114
727.671
709.101
691.38
673.454
654.903
635.645
615.753
595.348
574.552
553.468
532.176
510.736
489.19
467.57
445.897
424.188
402.452
380.696
358.926
337.145
315.355
293.558
271.756
249.949
228.139
206.327
184.515
162.703
140.891
119.078
97.2644
75.4496
53.6335
31.8165
10
1304.16
1304.16
1282.22
1258.52
1232.43
1202.16
1164.5
1115.18
1052.48
984.865
920.009
862.022
813.569
776.559
749.114
727.671
709.101
691.38
673.454
654.903
635.645
615.753
595.348
574.552
553.468
532.176
510.736
489.19
467.57
445.897
424.188
402.452
380.696
358.926
337.145
315.355
293.558
271.756
249.949
228.139
206.327
184.515
162.703
140.891
119.078
97.2644
75.4496
53.6335
31.8165
10

SCALARS  u float
LOOKUP_TABLE default 
0.898438
0.55415
0.573677
0.570197
0.552589
0.529362
0.637112
2.28503
0
0
0
0
-1.44128
-0.0730019
0.171726
0.279953
0.360744
0.4217
0.467214
0.501133
0.526566
0.545862
0.560727
0.572371
0.581646
0.589153
0.595315
0.600439
0.604748
0.608409
0.611549
0.614267
0.616638
0.618725
0.620574
0.622226
0.62371
0.625053
0.626275
0.627392
0.628419
0.629368
0.630249
0.63107
0.631838
0.632559
0.633237
0.633866
0.634385
0.634385
3.18751
2.82565
2.85758
2.82307
2.72732
2.56981
2.66437
6.02816
0
0
0
0
-3.37761
0.273974
1.09765
1.54374
1.89456
2.16388
2.36633
2.51731
2.63006
2.7149
2.77946
2.82927
2.86824
2.89917
2.92403
2.94426
2.96091
2.97475
2.98637
2.99621
3.00463
3.0119
3.01822
3.02378
3.02869
3.03308
3.03702
3.04058
3.04382
3.0468
3.04953
3.05207
3.05443
3.05664
3.05871
3.06062
3.06222
3.06223
5.23342
4.88794
4.90102
4.84688
4.70754
4.46953
4.50015
8.02021
0
0
0
0
-4.07369
0.800567
2.02889
2.7291
3.2801
3.7088
4.03702
4.28633
4.47557
4.61987
4.73079
4.81694
4.88461
4.9384
4.98163
5.01676
5.0456
5.06951
5.08951
5.10641
5.12081
5.1332
5.14395
5.15335
5.16165
5.16903
5.17565
5.18163
5.18706
5.19203
5.1966
5.20083
5.20476
5.20843
5.21186
5.21504
5.21772
5.21775
7.0233
6.71018
6.70302
6.63809
6.48196
6.20697
6.14725
9.17193
0
0
0
0
-3.96446
1.57091
3.01577
3.88518
4.56666
5.10208
5.51878
5.84098
6.08964
6.282
6.43161
6.54886
6.64156
6.71557
6.77522
6.82376
6.86364
6.89671
6.92438
6.94774
6.96764
6.98475
6.99959
7.01258
7.02403
7.03422
7.04335
7.0516
7.05909
7.06594
7.07225
7.07808
7.0835
7.08856
7.0933
7.09771
7.10145
7.10148
8.55356
8.27573
8.25754
8.19068
8.03793
7.76286
7.62266
9.83425
0
0
0
0
-3.10353
2.63464
4.12213
5.06908
5.80843
6.39386
6.85608
7.21929
7.50401
7.72735
7.90313
8.04223
8.15305
8.24204
8.31408
8.37292
8.42138
8.46165
8.49542
8.52399
8.54837
8.56937
8.58761
8.6036
8.61774
8.63033
8.64164
8.65186
8.66117
8.66969
8.67755
8.68483
8.6916
8.69792
8.70385
8.70937
8.71411
8.71415
9.82492
9.57844
9.55867
9.49825
9.36402
9.12107
8.94355
9.94936
0
0
0
0
-1.15908
4.03593
5.41317
6.33284
7.0519
7.62707
8.08784
8.45556
8.74815
8.98079
9.16607
9.31417
9.43318
9.52943
9.60783
9.67219
9.72547
9.76994
9.80739
9.83921
9.86648
9.89007
9.91065
9.92877
9.94485
9.95923
9.9722
9.98396
9.99471
10.0046
10.0137
10.0222
10.0301
10.0375
10.0444
10.0509
10.0565
10.0566
10.8393
10.6178
10.6029
10.5556
10.4509
10.2669
10.149
11.5032
5.31869
4.13462
3.66917
3.58891
3.09692
5.85985
6.93536
7.70681
8.32338
8.82696
9.23822
9.57226
9.8423
10.0601
10.2357
10.3777
10.4929
10.587
10.6642
10.7281
10.7814
10.8263
10.8643
10.8969
10.925
10.9495
10.9711
10.9902
11.0073
11.0227
11.0366
11.0494
11.0611
11.0719
11.0819
11.0912
11.1
11.1082
11.1159
11.1232
11.1295
11.1295
11.5987
11.3958
11.3892
11.3595
11.2913
11.1824
11.1976
12.4492
10.4317
8.82743
8.01002
7.73332
7.18639
8.0596
8.66745
9.17626
9.61538
9.99146
10.3089
10.5734
10.7917
10.9709
11.1177
11.238
11.3371
11.4189
11.487
11.544
11.5922
11.6333
11.6686
11.6992
11.726
11.7496
11.7706
11.7894
11.8065
11.822
11.8362
11.8492
11.8613
11.8726
11.8831
11.893
11.9022
11.911
11.9192
11.927
11.9338
11.9338
12.1043
11.9143
11.9175
11.9078
11.8798
11.8512
12.0043
13.1746
12.9813
12.035
11.3235
10.9726
10.4241
10.3543
10.4694
10.6614
10.8757
11.0844
11.2744
11.4408
11.5833
11.7039
11.8053
11.8905
11.9623
12.023
12.0748
12.1191
12.1575
12.1909
12.2204
12.2464
12.2697
12.2907
12.3098
12.3272
12.3431
12.3579
12.3716
12.3843
12.3963
12.4075
12.4181
12.428
12.4375
12.4464
12.4549
12.4629
12.47
12.47
12.357
12.175
12.1884
12.1997
12.2127
12.2619
12.5309
13.6212
14.1907
13.9255
13.5431
13.274
12.7946
12.3586
12.1189
12.0227
12.0085
12.0359
12.0818
12.1337
12.1856
12.2344
12.2794
12.3202
12.357
12.3904
12.4206
12.448
12.4731
12.4961
12.5173
12.5369
12.5552
12.5722
12.5881
12.603
12.6171
12.6304
12.6429
12.6548
12.6661
12.6768
12.6871
12.6968
12.7061
12.7149
12.7234
12.7314
12.7385
12.7385
12.3573
12.1787
12.2021
12.2345
12.2875
12.408
12.7684
13.7886
14.653
14.8569
14.8077
14.696
14.3355
13.8259
13.4024
13.0998
12.8931
12.7531
12.6584
12.5947
12.5526
12.5261
12.5109
12.504
12.5031
12.5065
12.513
12.5218
12.532
12.5433
12.5551
12.5673
12.5796
12.5918
12.6039
12.6158
12.6275
12.6388
12.6497
12.6604
12.6706
12.6805
12.69
12.6992
12.7081
12.7165
12.7247
12.7325
12.7394
12.7394
12.1051
11.9254
11.9584
12.0113
12.1024
12.2862
12.7175
13.682
14.6429
15.1244
15.325
15.3658
15.1307
14.6654
14.1802
13.7579
13.4133
13.1395
12.9252
12.7593
12.6326
12.5372
12.4665
12.4153
12.3791
12.3544
12.3387
12.3297
12.3257
12.3256
12.3283
12.3331
12.3395
12.3469
12.3551
12.3638
12.3727
12.3819
12.391
12.4002
12.4091
12.418
12.4266
12.435
12.4432
12.4511
12.4587
12.4661
12.4726
12.4726
11.5999
11.4141
11.4564
11.529
11.6554
11.8942
12.3802
13.3028
14.2796
14.9094
15.267
15.4161
15.278
14.8806
14.3923
13.9119
13.4815
13.1148
12.8125
12.5693
12.3775
12.2287
12.1148
12.0289
11.965
11.9182
11.8847
11.8614
11.8459
11.8364
11.8315
11.83
11.8312
11.8344
11.8391
11.8448
11.8513
11.8583
11.8656
11.8732
11.8808
11.8885
11.8961
11.9035
11.9109
11.918
11.925
11.9317
11.9377
11.9377
10.841
10.6429
10.6947
10.786
10.944
11.2288
11.756
12.6464
13.606
14.302
14.7384
14.9413
14.8559
14.5066
14.029
13.5235
13.047
12.6269
12.2728
11.9838
11.7534
11.573
11.4336
11.3271
11.2465
11.1862
11.1416
11.1092
11.0861
11.0704
11.0602
11.0543
11.0518
11.0517
11.0536
11.0569
11.0613
11.0665
11.0722
11.0783
11.0846
11.0911
11.0976
11.104
11.1105
11.1168
11.123
11.1289
11.1343
11.1342
9.82701
9.60934
9.67158
9.78005
9.96406
10.2838
10.8377
11.6979
12.6216
13.3273
13.7798
13.9846