# vtk DataFile Version 3.0
vtk output487
ASCII
DATASET STRUCTURED_GRID
DIMENSIONS 36 26 1
POINTS 936 float
0 0 0
0.171429 0 0
0.342857 0 0
0.514286 0 0
0.685714 0 0
0.857143 0 0
1.02857 0 0
1.2 0 0
1.37143 0 0
1.54286 0 0
1.71429 0 0
1.88571 0 0
2.05714 0 0
2.22857 0 0
2.4 0 0
2.57143 0 0
2.74286 0 0
2.91429 0 0
3.08571 0 0
3.25714 0 0
3.42857 0 0
3.6 0 0
3.77143 0 0
3.94286 0 0
4.11429 0 0
4.28571 0 0
4.45714 0 0
4.62857 0 0
4.8 0 0
4.97143 0 0
5.14286 0 0
5.31429 0 0
5.48571 0 0
5.65714 0 0
5.82857 0 0
6 0 0
0 0.2 0
0.171429 0.2 0
0.342857 0.2 0
0.514286 0.2 0
0.685714 0.2 0
0.857143 0.2 0
1.02857 0.2 0
1.2 0.2 0
1.37143 0.2 0
1.54286 0.2 0
1.71429 0.2 0
1.88571 0.2 0
2.05714 0.2 0
2.22857 0.2 0
2.4 0.2 0
2.57143 0.2 0
2.74286 0.2 0
2.91429 0.2 0
3.08571 0.2 0
3.25714 0.2 0
3.42857 0.2 0
3.6 0.2 0
3.77143 0.2 0
3.94286 0.2 0
4.11429 0.2 0
4.28571 0.2 0
4.45714 0.2 0
4.62857 0.2 0
4.8 0.2 0
4.97143 0.2 0
5.14286 0.2 0
5.31429 0.2 0
5.48571 0.2 0
5.65714 0.2 0
5.82857 0.2 0
6 0.2 0
0 0.4 0
0.171429 0.4 0
0.342857 0.4 0
0.514286 0.4 0
0.685714 0.4 0
0.857143 0.4 0
1.02857 0.4 0
1.2 0.4 0
1.37143 0.4 0
1.54286 0.4 0
1.71429 0.4 0
1.88571 0.4 0
2.05714 0.4 0
2.22857 0.4 0
2.4 0.4 0
2.57143 0.4 0
2.74286 0.4 0
2.91429 0.4 0
3.08571 0.4 0
3.25714 0.4 0
3.42857 0.4 0
3.6 0.4 0
3.77143 0.4 0
3.94286 0.4 0
4.11429 0.4 0
4.28571 0.4 0
4.45714 0.4 0
4.62857 0.4 0
4.8 0.4 0
4.97143 0.4 0
5.14286 0.4 0
5.31429 0.4 0
5.48571 0.4 0
5.65714 0.4 0
5.82857 0.4 0
6 0.4 0
0 0.6 0
0.171429 0.6 0
0.342857 0.6 0
0.514286 0.6 0
0.685714 0.6 0
0.857143 0.6 0
1.02857 0.6 0
1.2 0.6 0
1.37143 0.6 0
1.54286 0.6 0
1.71429 0.6 0
1.88571 0.6 0
2.05714 0.6 0
2.22857 0.6 0
2.4 0.6 0
2.57143 0.6 0
2.74286 0.6 0
2.91429 0.6 0
3.08571 0.6 0
3.25714 0.6 0
3.42857 0.6 0
3.6 0.6 0
3.77143 0.6 0
3.94286 0.6 0
4.11429 0.6 0
4.28571 0.6 0
4.45714 0.6 0
4.62857 0.6 0
4.8 0.6 0
4.97143 0.6 0
5.14286 0.6 0
5.31429 0.6 0
5.48571 0.6 0
5.65714 0.6 0
5.82857 0.6 0
6 0.6 0
0 0.8 0
0.171429 0.8 0
0.342857 0.8 0
0.514286 0.8 0
0.685714 0.8 0
0.857143 0.8 0
1.02857 0.8 0
1.2 0.8 0
1.37143 0.8 0
1.54286 0.8 0
1.71429 0.8 0
1.88571 0.8 0
2.05714 0.8 0
2.22857 0.8 0
2.4 0.8 0
2.57143 0.8 0
2.74286 0.8 0
2.91429 0.8 0
3.08571 0.8 0
3.25714 0.8 0
3.42857 0.8 0
3.6 0.8 0
3.77143 0.8 0
3.94286 0.8 0
4.11429 0.8 0
4.28571 0.8 0
4.45714 0.8 0
4.62857 0.8 0
4.8 0.8 0
4.97143 0.8 0
5.14286 0.8 0
5.31429 0.8 0
5.48571 0.8 0
5.65714 0.8 0
5.82857 0.8 0
6 0.8 0
0 1 0
0.171429 1 0
0.342857 1 0
0.514286 1 0
0.685714 1 0
0.857143 1 0
1.02857 1 0
1.2 1 0
1.37143 1 0
1.54286 1 0
1.71429 1 0
1.88571 1 0
2.05714 1 0
2.22857 1 0
2.4 1 0
2.57143 1 0
2.74286 1 0
2.91429 1 0
3.08571 1 0
3.25714 1 0
3.42857 1 0
3.6 1 0
3.77143 1 0
3.94286 1 0
4.11429 1 0
4.28571 1 0
4.45714 1 0
4.62857 1 0
4.8 1 0
4.97143 1 0
5.14286 1 0
5.31429 1 0
5.48571 1 0
5.65714 1 0
5.82857 1 0
6 1 0
0 1.2 0
0.171429 1.2 0
0.342857 1.2 0
0.514286 1.2 0
0.685714 1.2 0
0.857143 1.2 0
1.02857 1.2 0
1.2 1.2 0
1.37143 1.2 0
1.54286 1.2 0
1.71429 1.2 0
1.88571 1.2 0
2.05714 1.2 0
2.22857 1.2 0
2.4 1.2 0
2.57143 1.2 0
2.74286 1.2 0
2.91429 1.2 0
3.08571 1.2 0
3.25714 1.2 0
3.42857 1.2 0
3.6 1.2 0
3.77143 1.2 0
3.94286 1.2 0
4.11429 1.2 0
4.28571 1.2 0
4.45714 1.2 0
4.62857 1.2 0
4.8 1.2 0
4.97143 1.2 0
5.14286 1.2 0
5.31429 1.2 0
5.48571 1.2 0
5.65714 1.2 0
5.82857 1.2 0
6 1.2 0
0 1.4 0
0.171429 1.4 0
0.342857 1.4 0
0.514286 1.4 0
0.685714 1.4 0
0.857143 1.4 0
1.02857 1.4 0
1.2 1.4 0
1.37143 1.4 0
1.54286 1.4 0
1.71429 1.4 0
1.88571 1.4 0
2.05714 1.4 0
2.22857 1.4 0
2.4 1.4 0
2.57143 1.4 0
2.74286 1.4 0
2.91429 1.4 0
3.08571 1.4 0
3.25714 1.4 0
3.42857 1.4 0
3.6 1.4 0
3.77143 1.4 0
3.94286 1.4 0
4.11429 1.4 0
4.28571 1.4 0
4.45714 1.4 0
4.62857 1.4 0
4.8 1.4 0
4.97143 1.4 0
5.14286 1.4 0
5.31429 1.4 0
5.48571 1.4 0
5.65714 1.4 0
5.82857 1.4 0
6 1.4 0
0 1.6 0
0.171429 1.6 0
0.342857 1.6 0
0.514286 1.6 0
0.685714 1.6 0
0.857143 1.6 0
1.02857 1.6 0
1.2 1.6 0
1.37143 1.6 0
1.54286 1.6 0
1.71429 1.6 0
1.88571 1.6 0
2.05714 1.6 0
2.22857 1.6 0
2.4 1.6 0
2.57143 1.6 0
2.74286 1.6 0
2.91429 1.6 0
3.08571 1.6 0
3.25714 1.6 0
3.42857 1.6 0
3.6 1.6 0
3.77143 1.6 0
3.94286 1.6 0
4.11429 1.6 0
4.28571 1.6 0
4.45714 1.6 0
4.62857 1.6 0
4.8 1.6 0
4.97143 1.6 0
5.14286 1.6 0
5.31429 1.6 0
5.48571 1.6 0
5.65714 1.6 0
5.82857 1.6 0
6 1.6 0
0 1.8 0
0.171429 1.8 0
0.342857 1.8 0
0.514286 1.8 0
0.685714 1.8 0
0.857143 1.8 0
1.02857 1.8 0
1.2 1.8 0
1.37143 1.8 0
1.54286 1.8 0
1.71429 1.8 0
1.88571 1.8 0
2.05714 1.8 0
2.22857 1.8 0
2.4 1.8 0
2.57143 1.8 0
2.74286 1.8 0
2.91429 1.8 0
3.08571 1.8 0
3.25714 1.8 0
3.42857 1.8 0
3.6 1.8 0
3.77143 1.8 0
3.94286 1.8 0
4.11429 1.8 0
4.28571 1.8 0
4.45714 1.8 0
4.62857 1.8 0
4.8 1.8 0
4.97143 1.8 0
5.14286 1.8 0
5.31429 1.8 0
5.48571 1.8 0
5.65714 1.8 0
5.82857 1.8 0
6 1.8 0
0 2 0
0.171429 2 0
0.342857 2 0
0.514286 2 0
0.685714 2 0
0.857143 2 0
1.02857 2 0
1.2 2 0
1.37143 2 0
1.54286 2 0
1.71429 2 0
1.88571 2 0
2.05714 2 0
2.22857 2 0
2.4 2 0
2.57143 2 0
2.74286 2 0
2.91429 2 0
3.08571 2 0
3.25714 2 0
3.42857 2 0
3.6 2 0
3.77143 2 0
3.94286 2 0
4.11429 2 0
4.28571 2 0
4.45714 2 0
4.62857 2 0
4.8 2 0
4.97143 2 0
5.14286 2 0
5.31429 2 0
5.48571 2 0
5.65714 2 0
5.82857 2 0
6 2 0
0 2.2 0
0.171429 2.2 0
0.342857 2.2 0
0.514286 2.2 0
0.685714 2.2 0
0.857143 2.2 0
1.02857 2.2 0
1.2 2.2 0
1.37143 2.2 0
1.54286 2.2 0
1.71429 2.2 0
1.88571 2.2 0
2.05714 2.2 0
2.22857 2.2 0
2.4 2.2 0
2.57143 2.2 0
2.74286 2.2 0
2.91429 2.2 0
3.08571 2.2 0
3.25714 2.2 0
3.42857 2.2 0
3.6 2.2 0
3.77143 2.2 0
3.94286 2.2 0
4.11429 2.2 0
4.28571 2.2 0
4.45714 2.2 0
4.62857 2.2 0
4.8 2.2 0
4.97143 2.2 0
5.14286 2.2 0
5.31429 2.2 0
5.48571 2.2 0
5.65714 2.2 0
5.82857 2.2 0
6 2.2 0
0 2.4 0
0.171429 2.4 0
0.342857 2.4 0
0.514286 2.4 0
0.685714 2.4 0
0.857143 2.4 0
1.02857 2.4 0
1.2 2.4 0
1.37143 2.4 0
1.54286 2.4 0
1.71429 2.4 0
1.88571 2.4 0
2.05714 2.4 0
2.22857 2.4 0
2.4 2.4 0
2.57143 2.4 0
2.74286 2.4 0
2.91429 2.4 0
3.08571 2.4 0
3.25714 2.4 0
3.42857 2.4 0
3.6 2.4 0
3.77143 2.4 0
3.94286 2.4 0
4.11429 2.4 0
4.28571 2.4 0
4.45714 2.4 0
4.62857 2.4 0
4.8 2.4 0
4.97143 2.4 0
5.14286 2.4 0
5.31429 2.4 0
5.48571 2.4 0
5.65714 2.4 0
5.82857 2.4 0
6 2.4 0
0 2.6 0
0.171429 2.6 0
0.342857 2.6 0
0.514286 2.6 0
0.685714 2.6 0
0.857143 2.6 0
1.02857 2.6 0
1.2 2.6 0
1.37143 2.6 0
1.54286 2.6 0
1.71429 2.6 0
1.88571 2.6 0
2.05714 2.6 0
2.22857 2.6 0
2.4 2.6 0
2.57143 2.6 0
2.74286 2.6 0
2.91429 2.6 0
3.08571 2.6 0
3.25714 2.6 0
3.42857 2.6 0
3.6 2.6 0
3.77143 2.6 0
3.94286 2.6 0
4.11429 2.6 0
4.28571 2.6 0
4.45714 2.6 0
4.62857 2.6 0
4.8 2.6 0
4.97143 2.6 0
5.14286 2.6 0
5.31429 2.6 0
5.48571 2.6 0
5.65714 2.6 0
5.82857 2.6 0
6 2.6 0
0 2.8 0
0.171429 2.8 0
0.342857 2.8 0
0.514286 2.8 0
0.685714 2.8 0
0.857143 2.8 0
1.02857 2.8 0
1.2 2.8 0
1.37143 2.8 0
1.54286 2.8 0
1.71429 2.8 0
1.88571 2.8 0
2.05714 2.8 0
2.22857 2.8 0
2.4 2.8 0
2.57143 2.8 0
2.74286 2.8 0
2.91429 2.8 0
3.08571 2.8 0
3.25714 2.8 0
3.42857 2.8 0
3.6 2.8 0
3.77143 2.8 0
3.94286 2.8 0
4.11429 2.8 0
4.28571 2.8 0
4.45714 2.8 0
4.62857 2.8 0
4.8 2.8 0
4.97143 2.8 0
5.14286 2.8 0
5.31429 2.8 0
5.48571 2.8 0
5.65714 2.8 0
5.82857 2.8 0
6 2.8 0
0 3 0
0.171429 3 0
0.342857 3 0
0.514286 3 0
0.685714 3 0
0.857143 3 0
1.02857 3 0
1.2 3 0
1.37143 3 0
1.54286 3 0
1.71429 3 0
1.88571 3 0
2.05714 3 0
2.22857 3 0
2.4 3 0
2.57143 3 0
2.74286 3 0
2.91429 3 0
3.08571 3 0
3.25714 3 0
3.42857 3 0
3.6 3 0
3.77143 3 0
3.94286 3 0
4.11429 3 0
4.28571 3 0
4.45714 3 0
4.62857 3 0
4.8 3 0
4.97143 3 0
5.14286 3 0
5.31429 3 0
5.48571 3 0
5.65714 3 0
5.82857 3 0
6 3 0
0 3.2 0
0.171429 3.2 0
0.342857 3.2 0
0.514286 3.2 0
0.685714 3.2 0
0.857143 3.2 0
1.02857 3.2 0
1.2 3.2 0
1.37143 3.2 0
1.54286 3.2 0
1.71429 3.2 0
1.88571 3.2 0
2.05714 3.2 0
2.22857 3.2 0
2.4 3.2 0
2.57143 3.2 0
2.74286 3.2 0
2.91429 3.2 0
3.08571 3.2 0
3.25714 3.2 0
3.42857 3.2 0
3.6 3.2 0
3.77143 3.2 0
3.94286 3.2 0
4.11429 3.2 0
4.28571 3.2 0
4.45714 3.2 0
4.62857 3.2 0
4.8 3.2 0
4.97143 3.2 0
5.14286 3.2 0
5.31429 3.2 0
5.48571 3.2 0
5.65714 3.2 0
5.82857 3.2 0
6 3.2 0
0 3.4 0
0.171429 3.4 0
0.342857 3.4 0
0.514286 3.4 0
0.685714 3.4 0
0.857143 3.4 0
1.02857 3.4 0
1.2 3.4 0
1.37143 3.4 0
1.54286 3.4 0
1.71429 3.4 0
1.88571 3.4 0
2.05714 3.4 0
2.22857 3.4 0
2.4 3.4 0
2.57143 3.4 0
2.74286 3.4 0
2.91429 3.4 0
3.08571 3.4 0
3.25714 3.4 0
3.42857 3.4 0
3.6 3.4 0
3.77143 3.4 0
3.94286 3.4 0
4.11429 3.4 0
4.28571 3.4 0
4.45714 3.4 0
4.62857 3.4 0
4.8 3.4 0
4.97143 3.4 0
5.14286 3.4 0
5.31429 3.4 0
5.48571 3.4 0
5.65714 3.4 0
5.82857 3.4 0
6 3.4 0
0 3.6 0
0.171429 3.6 0
0.342857 3.6 0
0.514286 3.6 0
0.685714 3.6 0
0.857143 3.6 0
1.02857 3.6 0
1.2 3.6 0
1.37143 3.6 0
1.54286 3.6 0
1.71429 3.6 0
1.88571 3.6 0
2.05714 3.6 0
2.22857 3.6 0
2.4 3.6 0
2.57143 3.6 0
2.74286 3.6 0
2.91429 3.6 0
3.08571 3.6 0
3.25714 3.6 0
3.42857 3.6 0
3.6 3.6 0
3.77143 3.6 0
3.94286 3.6 0
4.11429 3.6 0
4.28571 3.6 0
4.45714 3.6 0
4.62857 3.6 0
4.8 3.6 0
4.97143 3.6 0
5.14286 3.6 0
5.31429 3.6 0
5.48571 3.6 0
5.65714 3.6 0
5.82857 3.6 0
6 3.6 0
0 3.8 0
0.171429 3.8 0
0.342857 3.8 0
0.514286 3.8 0
0.685714 3.8 0
0.857143 3.8 0
1.02857 3.8 0
1.2 3.8 0
1.37143 3.8 0
1.54286 3.8 0
1.71429 3.8 0
1.88571 3.8 0
2.05714 3.8 0
2.22857 3.8 0
2.4 3.8 0
2.57143 3.8 0
2.74286 3.8 0
2.91429 3.8 0
3.08571 3.8 0
3.25714 3.8 0
3.42857 3.8 0
3.6 3.8 0
3.77143 3.8 0
3.94286 3.8 0
4.11429 3.8 0
4.28571 3.8 0
4.45714 3.8 0
4.62857 3.8 0
4.8 3.8 0
4.97143 3.8 0
5.14286 3.8 0
5.31429 3.8 0
5.48571 3.8 0
5.65714 3.8 0
5.82857 3.8 0
6 3.8 0
0 4 0
0.171429 4 0
0.342857 4 0
0.514286 4 0
0.685714 4 0
0.857143 4 0
1.02857 4 0
1.2 4 0
1.37143 4 0
1.54286 4 0
1.71429 4 0
1.88571 4 0
2.05714 4 0
2.22857 4 0
2.4 4 0
2.57143 4 0
2.74286 4 0
2.91429 4 0
3.08571 4 0
3.25714 4 0
3.42857 4 0
3.6 4 0
3.77143 4 0
3.94286 4 0
4.11429 4 0
4.28571 4 0
4.45714 4 0
4.62857 4 0
4.8 4 0
4.97143 4 0
5.14286 4 0
5.31429 4 0
5.48571 4 0
5.65714 4 0
5.82857 4 0
6 4 0
0 4.2 0
0.171429 4.2 0
0.342857 4.2 0
0.514286 4.2 0
0.685714 4.2 0
0.857143 4.2 0
1.02857 4.2 0
1.2 4.2 0
1.37143 4.2 0
1.54286 4.2 0
1.71429 4.2 0
1.88571 4.2 0
2.05714 4.2 0
2.22857 4.2 0
2.4 4.2 0
2.57143 4.2 0
2.74286 4.2 0
2.91429 4.2 0
3.08571 4.2 0
3.25714 4.2 0
3.42857 4.2 0
3.6 4.2 0
3.77143 4.2 0
3.94286 4.2 0
4.11429 4.2 0
4.28571 4.2 0
4.45714 4.2 0
4.62857 4.2 0
4.8 4.2 0
4.97143 4.2 0
5.14286 4.2 0
5.31429 4.2 0
5.48571 4.2 0
5.65714 4.2 0
5.82857 4.2 0
6 4.2 0
0 4.4 0
0.171429 4.4 0
0.342857 4.4 0
0.514286 4.4 0
0.685714 4.4 0
0.857143 4.4 0
1.02857 4.4 0
1.2 4.4 0
1.37143 4.4 0
1.54286 4.4 0
1.71429 4.4 0
1.88571 4.4 0
2.05714 4.4 0
2.22857 4.4 0
2.4 4.4 0
2.57143 4.4 0
2.74286 4.4 0
2.91429 4.4 0
3.08571 4.4 0
3.25714 4.4 0
3.42857 4.4 0
3.6 4.4 0
3.77143 4.4 0
3.94286 4.4 0
4.11429 4.4 0
4.28571 4.4 0
4.45714 4.4 0
4.62857 4.4 0
4.8 4.4 0
4.97143 4.4 0
5.14286 4.4 0
5.31429 4.4 0
5.48571 4.4 0
5.65714 4.4 0
5.82857 4.4 0
6 4.4 0
0 4.6 0
0.171429 4.6 0
0.342857 4.6 0
0.514286 4.6 0
0.685714 4.6 0
0.857143 4.6 0
1.02857 4.6 0
1.2 4.6 0
1.37143 4.6 0
1.54286 4.6 0
1.71429 4.6 0
1.88571 4.6 0
2.05714 4.6 0
2.22857 4.6 0
2.4 4.6 0
2.57143 4.6 0
2.74286 4.6 0
2.91429 4.6 0
3.08571 4.6 0
3.25714 4.6 0
3.42857 4.6 0
3.6 4.6 0
3.77143 4.6 0
3.94286 4.6 0
4.11429 4.6 0
4.28571 4.6 0
4.45714 4.6 0
4.62857 4.6 0
4.8 4.6 0
4.97143 4.6 0
5.14286 4.6 0
5.31429 4.6 0
5.48571 4.6 0
5.65714 4.6 0
5.82857 4.6 0
6 4.6 0
0 4.8 0
0.171429 4.8 0
0.342857 4.8 0
0.514286 4.8 0
0.685714 4.8 0
0.857143 4.8 0
1.02857 4.8 0
1.2 4.8 0
1.37143 4.8 0
1.54286 4.8 0
1.71429 4.8 0
1.88571 4.8 0
2.05714 4.8 0
2.22857 4.8 0
2.4 4.8 0
2.57143 4.8 0
2.74286 4.8 0
2.91429 4.8 0
3.08571 4.8 0
3.25714 4.8 0
3.42857 4.8 0
3.6 4.8 0
3.77143 4.8 0
3.94286 4.8 0
4.11429 4.8 0
4.28571 4.8 0
4.45714 4.8 0
4.62857 4.8 0
4.8 4.8 0
4.97143 4.8 0
5.14286 4.8 0
5.31429 4.8 0
5.48571 4.8 0
5.65714 4.8 0
5.82857 4.8 0
6 4.8 0
0 5 0
0.171429 5 0
0.342857 5 0
0.514286 5 0
0.685714 5 0
0.857143 5 0
1.02857 5 0
1.2 5 0
1.37143 5 0
1.54286 5 0
1.71429 5 0
1.88571 5 0
2.05714 5 0
2.22857 5 0
2.4 5 0
2.57143 5 0
2.74286 5 0
2.91429 5 0
3.08571 5 0
3.25714 5 0
3.42857 5 0
3.6 5 0
3.77143 5 0
3.94286 5 0
4.11429 5 0
4.28571 5 0
4.45714 5 0
4.62857 5 0
4.8 5 0
4.97143 5 0
5.14286 5 0
5.31429 5 0
5.48571 5 0
5.65714 5 0
5.82857 5 0
6 5 0

CELL_DATA 875
SCALARS phi float
LOOKUP_TABLE default 
4.711
4.711
4.711
4.711
4.711
4.711
4.711
4.711
4.711
4.711
4.711
4.711
4.711
4.711
4.711
4.711
4.711
4.711
4.711
4.711
4.711
4.711
4.711
4.711
4.711
4.711
4.711
4.711
4.711
4.711
4.711
4.711
4.711
4.711
4.711
4.711
4.711
4.711
4.711
4.711
4.711
4.711
4.711
4.711
4.711
4.711
4.711
4.711
4.711
4.711
4.711
4.711
4.711
4.711
4.711
4.711
4.711
4.711
4.711
4.711
4.711
4.711
4.711
4.711
4.711
4.711
4.711
4.711
4.711
4.711
4.711
4.711
4.711
4.711
4.711
4.711
4.711
4.711
4.711
4.711
4.711
4.711
4.711
4.711
4.711
4.711
4.711
4.711
4.711
4.711
4.711
4.711
4.711
4.711
4.711
4.711
4.711
4.711
4.711
4.711
4.711
4.711
4.711
4.711
4.711
4.711
4.711
4.711
4.711
4.711
4.711
4.711
4.711
4.711
4.711
4.711
4.711
4.711
4.711
4.711
4.711
4.711
4.711
4.711
4.711
4.711
4.711
4.711
4.711
4.711
4.711
4.711
4.711
4.711
4.711
4.711
4.711
4.711
4.711
4.711
4.711
4.711
4.711
4.711
4.711
4.711
4.711
4.711
4.711
4.711
4.711
4.711
4.711
4.711
4.711
4.711
4.711
4.711
4.711
4.711
4.711
4.711
4.711
4.711
4.711
4.711
4.711
4.711
4.711
4.711
4.711
4.711
4.711
4.711
4.711
4.711
4.711
4.711
4.711
4.711
4.711
4.711
4.711
4.711
4.711
4.711
4.711
4.711
4.711
4.711
4.711
4.711
4.711
4.711
4.711
4.711
4.711
4.711
4.711
4.711
4.711
4.711
4.711
4.711
4.711
4.711
4.711
4.711
4.711
4.711
4.711
4.711
4.711
4.711
4.711
4.711
4.711
4.711
4.711
4.711
4.711
4.711
4.711
4.711
4.711
4.711
4.711
4.711
4.711
4.711
4.711
4.711
4.711
4.711
4.711
4.711
4.711
4.711
4.711
4.711
4.711
4.711
4.711
4.711
4.711
4.711
4.711
4.711
4.711
4.711
4.711
4.711
4.711
4.711
4.711
4.711
4.711
4.711
4.711
4.711
4.711
4.711
4.711
4.711
4.711
4.711
4.711
4.711
4.711
4.711
4.711
4.711
4.711
4.711
4.711
4.711
4.711
4.711
4.711
4.711
4.711
4.711
4.711
4.711
4.711
4.711
4.711
4.711
4.711
4.711
4.711
4.711
4.711
4.711
4.711
4.711
4.711
4.711
4.711
4.711
4.711
4.711
4.711
4.711
4.711
4.711
4.711
4.711
4.711
4.711
4.711
4.711
4.711
4.711
4.711
4.711
4.711
4.711
4.711
4.711
4.711
4.711
4.711
4.711
4.711
4.711
4.711
4.711
4.711
4.711
4.711
4.711
4.711
4.711
4.711
4.711
4.711
4.711
4.711
4.711
4.711
4.711
4.711
4.711
4.711
4.711
4.711
4.711
4.711
4.711
4.711
4.711
4.711
4.711
4.711
4.711
4.711
4.711
4.711
4.711
4.711
4.711
4.711
4.711
4.711
4.711
4.711
4.711
4.711
4.711
4.711
4.711
4.711
4.711
4.711
4.711
4.711
4.711
4.711
4.711
4.711
4.711
4.711
4.711
4.711
4.711
4.711
4.711
4.711
4.711
4.711
4.711
4.711
4.711
4.711
4.711
4.711
4.711
4.711
4.711
4.711
4.711
4.711
4.711
4.711
4.711
4.711
4.711
4.711
4.711
4.711
4.711
4.711
4.711
4.711
4.711
4.711
4.711
4.711
4.711
4.711
4.711
4.711
4.711
4.711
4.711
4.711
4.711
4.711
4.711
4.711
4.711
4.711
4.711
4.711
4.711
4.711
4.711
4.711
4.711
4.711
4.711
4.711
4.711
4.711
4.711
4.711
4.711
4.711
4.711
4.711
4.711
4.711
4.711
4.711
4.711
4.711
4.711
4.711
4.711
4.711
4.711
4.711
4.711
4.711
4.711
4.711
4.711
4.711
4.711
4.711
4.711
4.711
4.711
4.711
4.711
4.711
4.711
4.711
4.711
4.711
4.711
4.711
4.711
4.711
4.711
4.711
4.711
4.711
4.711
4.711
4.711
4.711
4.711
4.711
4.711
4.711
4.711
4.711
4.711
4.711
4.711
4.711
4.711
4.711
4.711
4.711
4.711
4.711
4.711
4.711
4.711
4.711
4.711
4.711
4.711
4.711
4.711
4.711
4.711
4.711
4.711
4.711
4.711
4.711
4.711
4.711
4.711
4.711
4.711
4.711
4.711
4.711
4.711
4.711
4.711
4.711
4.711
4.711
4.711
4.711
4.711
4.711
4.711
4.711
4.711
4.711
4.711
4.711
4.711
4.711
4.711
4.711
4.711
4.711
4.711
4.711
4.711
4.711
4.711
4.711
4.711
4.711
4.711
4.711
4.711
4.711
4.711
4.711
4.711
4.711
4.711
4.711
4.711
4.711
4.711
4.711
4.711
4.711
4.711
4.711
4.711
4.711
4.711
4.711
4.711
4.711
4.711
4.711
4.711
4.711
4.711
4.711
4.711
4.711
4.711
4.711
4.711
4.711
4.711
4.711
4.711
4.711
4.711
4.711
4.711
4.711
4.711
4.711
4.711
4.711
4.711
4.711
4.711
4.711
4.711
4.711
4.711
4.711
4.711
4.711
4.711
4.711
4.711
4.711
4.711
4.711
4.711
4.711
4.711
4.711
4.711
4.711
4.711
4.711
4.711
4.711
4.711
4.711
4.711
4.711
4.711
4.711
4.711
4.711
4.711
4.711
4.711
4.711
4.711
4.711
4.711
4.711
4.711
4.711
4.711
4.711
4.711
4.711
4.711
4.711
4.711
4.711
4.711
4.711
4.711
4.711
4.711
4.711
4.711
4.711
4.711
4.711
4.711
4.711
4.711
4.711
4.711
4.711
4.711
4.711
4.711
4.711
4.711
4.711
4.711
4.711
4.711
4.711
4.711
4.711
4.711
4.711
4.711
4.711
4.711
4.711
4.711
4.711
4.711
4.711
4.711
4.711
4.711
4.711
4.711
4.711
4.711
4.711
4.711
4.711
4.711
4.711
4.711
4.711
4.711
4.711
4.711
4.711
4.711
4.711
4.711
4.711
4.711
4.711
4.711
4.711
4.711
4.711
4.711
4.711
4.711
4.711
4.711
4.711
4.711
4.711
4.711
4.711
4.711
4.711
4.711
4.711
4.711
4.711
4.711
4.711
4.711
4.711
4.711
4.711
4.711
4.711
4.711
4.711
4.711
4.711
4.711
4.711
4.711
4.711
4.711
4.711
4.711
4.711
4.711
4.711
4.711
4.711
4.711
4.711
4.711
4.711
4.711
4.711
4.711
4.711
4.711
4.711
4.711
4.711
4.711
4.711
4.711
4.711
4.711
4.711
4.711
4.711
4.711
4.711
4.711
4.711
4.711
4.711
4.711
4.711
4.711
4.711
4.711
4.711
4.711
4.711
4.711
4.711
4.711
4.711
4.711
4.711
4.711
4.711
4.711
4.711
4.711
4.711
4.711
4.711
4.711
4.711
4.711
4.711
4.711
4.711
4.711
4.711
4.711
4.711
4.711
4.711
4.711
4.711
4.711
4.711
4.711
4.711
4.711
4.711
4.711
4.711
4.711
4.711
4.711
4.711
4.711
4.711
4.711
4.711
4.711
4.711
4.711
4.711
4.711
4.711
4.711
4.711
4.711
4.711
4.711
4.711
4.711
4.711
4.711
4.711
4.711
4.711
4.711
4.711
4.711
4.711
4.711
4.711
4.711
4.711
4.711
4.711

SCALARS p float
LOOKUP_TABLE default 
-1509.6
-1509.6
-1508.72
-1504.91
-1498.85
-1498.85
0
0
0
-4405.31
-4405.31
-4320.58
-4127.78
-3830.82
-3464.22
-3066.18
-2666.46
-2284.89
-1933.25
-1617.52
-1339.8
-1099.56
-894.644
-721.911
-577.726
-458.312
-359.966
-279.247
-213.049
-158.641
-113.641
-76.019
-44.0078
-15.9042
10
-1509.6
-1509.6
-1508.72
-1504.91
-1498.85
-1498.85
0
0
0
-4405.31
-4405.31
-4320.58
-4127.78
-3830.82
-3464.22
-3066.18
-2666.46
-2284.89
-1933.25
-1617.52
-1339.8
-1099.56
-894.644
-721.911
-577.726
-458.312
-359.966
-279.247
-213.049
-158.641
-113.641
-76.019
-44.0078
-15.9042
10
-1516.23
-1516.23
-1515.02
-1510.53
-1502.56
-1502.56
0
0
0
-4432.56
-4432.56
-4360.08
-4165.93
-3855.49
-3473.48
-3063.17
-2655.33
-2269.16
-1915.44
-1599.29
-1322.18
-1083.16
-879.788
-708.724
-566.214
-448.404
-351.553
-272.209
-207.28
-154.064
-110.143
-73.5718
-42.6813
-15.8985
10
-1534.65
-1534.65
-1533.38
-1527.87
-1517.49
-1517.49
0
0
0
-4439.16
-4439.16
-4353.69
-4148.47
-3830.47
-3444.27
-3032.9
-2626.37
-2242.94
-1892.61
-1579.93
-1306.04
-1069.83
-868.784
-699.593
-558.549
-441.875
-345.901
-267.246
-202.851
-150.086
-106.744
-70.7646
-40.452
-14.3125
10
-1571.09
-1571.09
-1570.11
-1564.06
-1551.79
-1551.79
0
0
0
-4489.6
-4489.6
-4347.85
-4100.62
-3768.59
-3383.91
-2980.37
-2583.75
-2210.34
-1869.14
-1564.22
-1296.55
-1065.02
-867.281
-700.217
-560.363
-444.175
-348.194
-269.224
-204.375
-151.106
-107.21
-70.7416
-40.0415
-13.7195
10
-1630.63
-1630.63
-1630.89
-1626.14
-1613.86
-1613.86
0
0
0
-4664.69
-4664.69
-4421.01
-4099.96
-3739.31
-3342.5
-2938.43
-2548.85
-2185.82
-1855.39
-1559.96
-1299.82
-1073.71
-879.414
-714.131
-574.742
-458.048
-360.895
-280.325
-213.651
-158.505
-112.777
-74.6196
-42.3573
-14.6562
10
-1715.5
-1715.5
-1719.15
-1720.3
-1713.84
-1713.84
0
0
0
-4991.87
-4991.87
-4800.36
-4361.47
-3872.27
-3383.1
-2939.42
-2540.99
-2182.55
-1860.94
-1574.3
-1321.22
-1099.93
-908.294
-743.763
-603.645
-485.181
-385.578
-302.02
-232.012
-173.552
-124.568
-83.4343
-48.1431
-17.513
10
-1822.74
-1822.74
-1833.39
-1850.12
-1869.63
-1869.63
-2558.4
-2739.93
-2914.79
-3084.68
-3255.76
-3442.95
-6031.35
-4296
-3492.94
-2969.42
-2556.34
-2201.89
-1888.53
-1609.64
-1362.31
-1144.47
-954.157
-788.906
-646.58
-525.048
-421.971
-334.16
-259.221
-195.093
-140.6
-94.1199
-54.623
-20.5575
10
-1941.47
-1941.47
-1961.79
-2003.64
-2082.19
-2248.21
-2558.4
-2739.93
-2914.79
-3084.68
-3255.76
-3442.95
-4392.95
-3870.06
-3369.04
-2939.79
-2565.85
-2232.53
-1932.24
-1661.55
-1419.07
-1203.36
-1013.33
-845.712
-698.745
-570.345
-459.023
-363.756
-282.717
-213.886
-155.128
-104.748
-61.3689
-23.6356
10
-2054.02
-2054.02
-2080.15
-2133.9
-2224.43
-2365.82
-2558.4
-2739.93
-2914.79
-3084.68
-3255.76
-3442.95
-3635.58
-3492.54
-3211.3
-2893.85
-2577.14
-2274.19
-1990.13
-1726.92
-1485.21
-1266.22
-1069.54
-895.834
-743.439
-610.661
-495.222
-395.415
-309.471
-235.56
-171.892
-116.872
-69.0937
-27.2655
10
-2145.68
-2145.68
-2173.75
-2230.36
-2319.04
-2442.37
-2595.25
-2757.39
-2920.25
-3077.61
-3222.3
-3340.65
-3397.95
-3313.54
-3124.03
-2875.04
-2599.8
-2319.08
-2045.44
-1786.39
-1546.37
-1326.95
-1128.7
-951.659
-794.877
-656.954
-536.155
-430.807
-339.207
-259.659
-190.536
-130.329
-77.6771
-31.3357
10
-2207.28
-2207.28
-2235.59
-2292.24
-2378.17
-2492.82
-2631.58
-2784.54
-2942.4
-3095.2
-3229.82
-3326.57
-3356.59
-3290
-3134.7
-2916.16
-2661.33
-2391.83
-2122.91
-1864.34
-1621.99
-1398.81
-1196.02
-1013.71
-851.162
-707.169
-580.19
-468.638
-370.884
-285.318
-210.4
-144.691
-86.8777
-35.7531
10
-2233.69
-2233.69
-2262.13
-2319.17
-2405.26
-2519.65
-2658.66
-2815.15
-2980.73
-3145.07
-3293.52
-3404.59
-3448.31
-3396.17
-3250.84
-3035.72
-2778.8
-2503.78
-2227.62
-1961.16
-1710.81
-1479.83
-1269.51
-1079.89
-910.188
-759.208
-625.423
-507.26
-403.105
-311.382
-230.589
-159.321
-96.2932
-40.3221
10
-2222.61
-2222.61
-2251.98
-2311.13
-2401.6
-2523.91
-2675.03
-2847
-3032.84
-3225.49
-3414.69
-3578.79
-3676.29
-3641.34
-3483.39
-3242.43
-2957.64
-2657.55
-2360.37
-2076.58
-1811.83
-1568.66
-1347.76
-1148.72
-970.478
-811.612
-670.473
-545.404
-434.742
-336.882
-250.309
-173.614
-105.514
-44.825
10
-2174.32
-2174.32
-2204.32
-2265.47
-2362.49
-2500.19
-2676.92
-2876.3
-3094.74
-3331.85
-3585.65
-3854.93
-4100.41
-4075.97
-3858.6
-3545.44
-3198.54
-2850.73
-2518.03
-2207.64
-1922.46
-1663.1
-1428.92
-1218.65
-1030.65
-863.144
-714.23
-582.083
-464.924
-361.067
-268.939
-187.092
-114.211
-49.0865
10
-2092.49
-2092.49
-2120.83
-2179.8
-2280.21
-2439.57
-2664
-2896.63
-3150.35
-3438.57
-3776.76
-4227.72
-4940.45
-4819.79
-4411.41
-3943.63
-3490.65
-3072.34
-2691.94
-2347.99
-2038.12
-1759.76
-1510.42
-1287.65
-1089.09
-912.483
-755.593
-616.373
-492.876
-383.298
-285.97
-199.371
-122.126
-52.9756
10
-1985.96
-1985.96
-2008.08
-2054.14
-2140.83
-2324.06
-2664
-2896.63
-3150.35
-3438.57
-3776.76
-4227.72
-7189.8
-6077.65
-5131.95
-4394.09
-3798.89
-3298.92
-2867.05
-2487.84
-2152.17
-1853.99
-1588.85
-1353.16
-1143.81
-958.051
-793.3
-647.254
-517.78
-402.924
-300.9
-210.086
-129.024
-56.3785
10
-1870.24
-1870.24
-1881.88
-1900.57
-1922.52
-1922.52
-2664
-2896.63
-3150.35
-3776.76
-3776.76
-4227.72
-11663.7
-7478.55
-5764.62
-4772.57
-4065.23
-3502.02
-3028.05
-2618
-2258.52
-1941.39
-1660.88
-1412.55
-1192.71
-998.149
-825.968
-673.607
-538.731
-419.226
-313.174
-218.836
-134.647
-59.1699
10
-1764.34
-1764.34
-1768.43
-1770.36
-1764.65
-1764.65
0
0
0
-10134.1
-10134.1
-10381.4
-8244.2
-6888.09
-5799.2
-4941.13
-4246.5
-3665.21
-3166.95
-2733.5
-2353.46
-2018.94
-1723.94
-1463.63
-1233.9
-1031.17
-852.239
-694.284
-554.77
-431.415
-322.162
-225.146
-138.678
-61.1907
10
-1680.01
-1680.01
-1680.45
-1675.99
-1663.95
-1663.95
0
0
0
-9066.38
-9066.38
-8495.59
-7513.44
-6614.4
-5787.42
-5042.26
-4381.37
-3798.59
-3285.34
-2833.26
-2435.12
-2084.58
-1776.05
-1504.57
-1265.75
-1055.68
-870.847
-708.176
-564.924
-438.645
-327.147
-228.441
-140.709
-62.2252
10
-1620.69
-1620.69
-1619.77
-1613.83
-1601.63
-1601.63
0
0
0
-8311.93
-8311.93
-7863.56
-7232.66
-6536.26
-5827.47
-5140.72
-4498.53
-3912.25
-3385.28
-2916.25
-2501.48
-2136.17
-1815.21
-1533.62
-1286.74
-1070.34
-880.616
-714.225
-568.225
-440.021
-327.306
-228.001
-140.181
-61.9554
10
-1584.33
-1584.33
-1583.08
-1577.6
-1567.25
-1567.25
0
0
0
-7907.55
-7907.55
-7596.99
-7128.65
-6544.29
-5898.28
-5238.72
-4600.73
-4005.7
-3464.15
-2979.1
-2549.23
-2170.82
-1839.06
-1548.87
-1295.33
-1073.89
-880.458
-711.45
-563.741
-434.612
-321.696
-222.892
-136.268
-59.849
10
-1565.93
-1565.93
-1564.73
-1560.25
-1552.29
-1552.29
0
0
0
-7712.87
-7712.87
-7484.34
-7103.53
-6582.12
-5968.92
-5319.23
-4677.02
-4070.62
-3515.11
-3016.17
-2573.87
-2185.03
-1844.94
-1548.33
-1290.02
-1065.18
-869.447
-699.029
-550.653
-421.524
-309.271
-211.888
-127.646
-54.8494
10
-1559.31
-1559.31
-1558.43
-1554.63
-1548.58
-1548.58
0
0
0
-7638.34
-7638.34
-7451.96
-7112.14
-6617.25
-6014.29
-5363.16
-4713.07
-4096.2
-3529.96
-3021.31
-2570.84
-2175.52
-1830.54
-1530.44
-1269.8
-1043.55
-847.136
-676.608
-528.587
-400.228
-289.195
-193.645
-112.287
-44.5421
10
-1559.31
-1559.31
-1558.43
-1554.63
-1548.58
-1548.58
0
0
0
-7638.34
-7638.34
-7451.96
-7112.14
-6617.25
-6014.29
-5363.16
-4713.07
-4096.2
-3529.96
-3021.31
-2570.84
-2175.52
-1830.54
-1530.44
-1269.8
-1043.55
-847.136
-676.608
-528.587
-400.228
-289.195
-193.645
-112.287
-44.5421
10

SCALARS  u float
LOOKUP_TABLE default 
0.3625
-0.714222
-0.730786
-0.735119
-0.738228
-0.742585
0
0
0
-3.18696
-3.45722
-3.45887
-3.44683
-3.4204
-3.38194
-3.33578
-3.28598
-3.23559
-3.18673
-3.14076
-3.09852
-3.0605
-3.02692
-2.99779
-2.97301
-2.95235
-2.9355
-2.92214
-2.91186
-2.90429
-2.89904
-2.89573
-2.89395
-2.8933
-2.8933
1.40229
-0.763692
-0.805044
-0.82559
-0.847886
-1.17736
0
0
0
-6.63756
-7.39678
-7.49875
-7.53604
-7.51322
-7.44743
-7.35568
-7.25058
-7.14066
-7.03151
-6.92671
-6.82848
-6.73815
-6.65641
-6.58349
-6.51933
-6.46361
-6.41589
-6.37564
-6.34233
-6.31552
-6.29487
-6.28015
-6.27126
-6.26762
-6.26712
2.24381
-0.351521
-0.404467
-0.429152
-0.448301
-0.980368
0
0
0
-6.53063
-7.03179
-7.08322
-7.07359
-7.02316
-6.95225
-6.87303
-6.79262
-6.71517
-6.6431
-6.57785
-6.52017
-6.47035
-6.42832
-6.39376
-6.36616
-6.34489
-6.32925
-6.31849
-6.31189
-6.30884
-6.30873
-6.31113
-6.31627
-6.32468
-6.32987
3.00363
1.57562
1.12278
-0.0315703
-0.078938
-0.804849
0
0
0
-6.47452
-6.76462
-6.64418
-6.52467
-6.42476
-6.34266
-6.27465
-6.21799
-6.17095
-6.13249
-6.102
-6.07899
-6.06303
-6.0536
-6.05011
-6.05191
-6.05832
-6.06865
-6.0822
-6.09829
-6.11609
-6.13496
-6.15443
-6.17426
-6.19511
-6.20611
3.68351
3.63651
3.18565
1.92928
1.28086
-0.636348
0
0
0
-6.38313
-6.44263
-6.18182
-5.9558
-5.80655
-5.71756
-5.66649
-5.63832
-5.62482
-5.62167
-5.62654
-5.63802
-5.65516
-5.67718
-5.70335
-5.73298
-5.76542
-5.80005
-5.83627
-5.87347
-5.91103
-5.94839
-5.98499
-6.02025
-6.05358
-6.06986
4.28349
4.27122
4.22601
4.0766
3.37017
0.673992
0
0
0
-6.20064
-5.95489
-5.57367
-5.29592
-5.1538
-5.09234
-5.07852
-5.08901
-5.11334
-5.14653
-5.18598
-5.23016
-5.27805
-5.32885
-5.38186
-5.43647
-5.49212
-5.54838
-5.60482
-5.66096
-5.71636
-5.7706
-5.82322
-5.87365
-5.92117
-5.9443
4.80355
4.77634
4.73888
4.6775
4.5317
2.51588
0
0
0
-5.90847
-5.13799
-4.66005
-4.4839
-4.52256
-4.51897
-4.5604
-4.61684
-4.6802
-4.74768
-4.81791
-4.89005
-4.96347
-5.03768
-5.11222
-5.18666
-5.26063
-5.33395
-5.4064
-5.4776
-5.54733
-5.61529
-5.68093
-5.74385
-5.80419
-5.83395
5.24373
1.58351
1.48964
1.3564
1.14995
0.823252
-0.285111
-0.356065
-0.405618
-3.89493
-3.98225
-3.44507
-3.42909
-3.9814
-4.09601
-4.19758
-4.29337
-4.38684
-4.47924
-4.57096
-4.66204
-4.75241
-4.84199
-4.9305
-5.01752
-5.10269
-5.1852
-5.26405
-5.33901
-5.40999
-5.47701
-5.54084
-5.60223
-5.66167
-5.69117
5.604
-2.7119
-2.80221
-2.91382
-3.06747
-3.2401
-3.50282
-3.63899
-3.73802
-3.82339
-3.79971
-3.59886
-3.64868
-3.91885
-4.00296
-4.09584
-4.18934
-4.28289
-4.37674
-4.4709
-4.5652
-4.6592
-4.75173
-4.84164
-4.92856
-5.01212
-5.09247
-5.17029
-5.24586
-5.31918
-5.39045
-5.45947
-5.52613
-5.59047
-5.62228
5.88433
-3.69856
-3.73124
-3.7401
-3.74602
-3.74462
-3.75038
-3.75055
-3.74315
-3.7308
-3.70918
-3.67163
-3.71815
-3.82945
-3.91341
-4.00001
-4.08897
-4.17945
-4.27077
-4.36247
-4.45376
-4.54391
-4.6331
-4.72169
-4.8094
-4.89601
-4.98131
-5.06489
-5.14648
-5.22589
-5.30298
-5.37759
-5.44963
-5.51907
-5.55338
6.08462
-3.80897
-3.82906
-3.81763
-3.79937
-3.77525
-3.75071
-3.72815
-3.70759
-3.69064
-3.67956
-3.68107
-3.71706
-3.78233
-3.85509
-3.93326
-4.01574
-4.10158
-4.18993
-4.27994
-4.371
-4.46271
-4.55443
-4.64562
-4.73593
-4.82503
-4.91264
-4.99846
-5.0823
-5.16398
-5.24338
-5.3204
-5.39494
-5.46699
-5.50264
6.20482
-3.81424
-3.83176
-3.8167
-3.79513
-3.76875
-3.74071
-3.71377
-3.69003
-3.67236
-3.66491
-3.67385
-3.70641
-3.7607
-3.82856
-3.90536
-3.98824
-4.07532
-4.16525
-4.25695
-4.34959
-4.44246
-4.53496
-4.6266
-4.71699
-4.80585
-4.89297
-4.97815
-5.06129
-5.14231
-5.22115
-5.29777
-5.37215
-5.44429
-5.48006
6.24493
-3.83034
-3.84695
-3.83046
-3.80709
-3.7785
-3.74721
-3.71592
-3.68729
-3.66494
-3.65397
-3.66116
-3.69289
-3.7477
-3.81815
-3.89859
-3.9854
-4.0763
-4.1697
-4.26441
-4.35953
-4.45431
-4.54818
-4.64066
-4.7314
-4.82015
-4.90674
-4.99107
-5.07309
-5.15281
-5.23027
-5.30552
-5.37862
-5.44965
-5.48492
6.20485
-3.86897
-3.88555
-3.86862
-3.84389
-3.81266
-3.77764
-3.74115
-3.7049
-3.67188
-3.64791
-3.64394
-3.67629
-3.742
-3.8238
-3.914
-4.00869
-4.10571
-4.2037
-4.30176
-4.39919
-4.49546
-4.59014
-4.68287
-4.7734
-4.86153
-4.94716
-5.03024
-5.11079
-5.18886
-5.26455
-5.33799
-5.40932
-5.47867
-5.51313
6.08466
-3.91636
-3.93486
-3.92024
-3.89653
-3.86394
-3.827
-3.78724
-3.74338
-3.69634
-3.64806
-3.6118
-3.64793
-3.74771
-3.85223
-3.95831
-4.06412
-4.16865
-4.27142
-4.37224
-4.47095
-4.56741
-4.66151
-4.75309
-4.84206
-4.92834
-5.01191
-5.09277
-5.171
-5.24669
-5.31999
-5.39106
-5.46008
-5.52725
-5.56066
5.88436
-3.85228
-3.88288
-3.88764
-3.88672
-3.87482
-3.86525
-3.84361
-3.80457
-3.7489
-3.66454
-3.52553
-3.59107
-3.80597
-3.9339
-4.05583
-4.17122
-4.28056
-4.38488
-4.48508
-4.58178
-4.67537
-4.76604
-4.85388
-4.93896
-5.02129
-5.10093
-5.17793
-5.25241
-5.32449
-5.39433
-5.46212
-5.52806
-5.59236
-5.6244
5.60403
-2.89055
-2.9779
-3.08432
-3.2305
-3.39253
-3.64126
-3.75753
-3.81898
-3.86291
-3.77415
-3.22904
-3.31037
-3.91224
-4.04634
-4.18584
-4.31264
-4.42756
-4.53341
-4.63243
-4.72612
-4.81545
-4.90106
-4.98339
-5.0627
-5.13923
-5.21314
-5.28458
-5.35374
-5.42076
-5.48586
-5.54923