# vtk DataFile Version 3.0
vtk output394
ASCII
DATASET STRUCTURED_GRID
DIMENSIONS 36 26 1
POINTS 936 float
0 0 0
0.171429 0 0
0.342857 0 0
0.514286 0 0
0.685714 0 0
0.857143 0 0
1.02857 0 0
1.2 0 0
1.37143 0 0
1.54286 0 0
1.71429 0 0
1.88571 0 0
2.05714 0 0
2.22857 0 0
2.4 0 0
2.57143 0 0
2.74286 0 0
2.91429 0 0
3.08571 0 0
3.25714 0 0
3.42857 0 0
3.6 0 0
3.77143 0 0
3.94286 0 0
4.11429 0 0
4.28571 0 0
4.45714 0 0
4.62857 0 0
4.8 0 0
4.97143 0 0
5.14286 0 0
5.31429 0 0
5.48571 0 0
5.65714 0 0
5.82857 0 0
6 0 0
0 0.2 0
0.171429 0.2 0
0.342857 0.2 0
0.514286 0.2 0
0.685714 0.2 0
0.857143 0.2 0
1.02857 0.2 0
1.2 0.2 0
1.37143 0.2 0
1.54286 0.2 0
1.71429 0.2 0
1.88571 0.2 0
2.05714 0.2 0
2.22857 0.2 0
2.4 0.2 0
2.57143 0.2 0
2.74286 0.2 0
2.91429 0.2 0
3.08571 0.2 0
3.25714 0.2 0
3.42857 0.2 0
3.6 0.2 0
3.77143 0.2 0
3.94286 0.2 0
4.11429 0.2 0
4.28571 0.2 0
4.45714 0.2 0
4.62857 0.2 0
4.8 0.2 0
4.97143 0.2 0
5.14286 0.2 0
5.31429 0.2 0
5.48571 0.2 0
5.65714 0.2 0
5.82857 0.2 0
6 0.2 0
0 0.4 0
0.171429 0.4 0
0.342857 0.4 0
0.514286 0.4 0
0.685714 0.4 0
0.857143 0.4 0
1.02857 0.4 0
1.2 0.4 0
1.37143 0.4 0
1.54286 0.4 0
1.71429 0.4 0
1.88571 0.4 0
2.05714 0.4 0
2.22857 0.4 0
2.4 0.4 0
2.57143 0.4 0
2.74286 0.4 0
2.91429 0.4 0
3.08571 0.4 0
3.25714 0.4 0
3.42857 0.4 0
3.6 0.4 0
3.77143 0.4 0
3.94286 0.4 0
4.11429 0.4 0
4.28571 0.4 0
4.45714 0.4 0
4.62857 0.4 0
4.8 0.4 0
4.97143 0.4 0
5.14286 0.4 0
5.31429 0.4 0
5.48571 0.4 0
5.65714 0.4 0
5.82857 0.4 0
6 0.4 0
0 0.6 0
0.171429 0.6 0
0.342857 0.6 0
0.514286 0.6 0
0.685714 0.6 0
0.857143 0.6 0
1.02857 0.6 0
1.2 0.6 0
1.37143 0.6 0
1.54286 0.6 0
1.71429 0.6 0
1.88571 0.6 0
2.05714 0.6 0
2.22857 0.6 0
2.4 0.6 0
2.57143 0.6 0
2.74286 0.6 0
2.91429 0.6 0
3.08571 0.6 0
3.25714 0.6 0
3.42857 0.6 0
3.6 0.6 0
3.77143 0.6 0
3.94286 0.6 0
4.11429 0.6 0
4.28571 0.6 0
4.45714 0.6 0
4.62857 0.6 0
4.8 0.6 0
4.97143 0.6 0
5.14286 0.6 0
5.31429 0.6 0
5.48571 0.6 0
5.65714 0.6 0
5.82857 0.6 0
6 0.6 0
0 0.8 0
0.171429 0.8 0
0.342857 0.8 0
0.514286 0.8 0
0.685714 0.8 0
0.857143 0.8 0
1.02857 0.8 0
1.2 0.8 0
1.37143 0.8 0
1.54286 0.8 0
1.71429 0.8 0
1.88571 0.8 0
2.05714 0.8 0
2.22857 0.8 0
2.4 0.8 0
2.57143 0.8 0
2.74286 0.8 0
2.91429 0.8 0
3.08571 0.8 0
3.25714 0.8 0
3.42857 0.8 0
3.6 0.8 0
3.77143 0.8 0
3.94286 0.8 0
4.11429 0.8 0
4.28571 0.8 0
4.45714 0.8 0
4.62857 0.8 0
4.8 0.8 0
4.97143 0.8 0
5.14286 0.8 0
5.31429 0.8 0
5.48571 0.8 0
5.65714 0.8 0
5.82857 0.8 0
6 0.8 0
0 1 0
0.171429 1 0
0.342857 1 0
0.514286 1 0
0.685714 1 0
0.857143 1 0
1.02857 1 0
1.2 1 0
1.37143 1 0
1.54286 1 0
1.71429 1 0
1.88571 1 0
2.05714 1 0
2.22857 1 0
2.4 1 0
2.57143 1 0
2.74286 1 0
2.91429 1 0
3.08571 1 0
3.25714 1 0
3.42857 1 0
3.6 1 0
3.77143 1 0
3.94286 1 0
4.11429 1 0
4.28571 1 0
4.45714 1 0
4.62857 1 0
4.8 1 0
4.97143 1 0
5.14286 1 0
5.31429 1 0
5.48571 1 0
5.65714 1 0
5.82857 1 0
6 1 0
0 1.2 0
0.171429 1.2 0
0.342857 1.2 0
0.514286 1.2 0
0.685714 1.2 0
0.857143 1.2 0
1.02857 1.2 0
1.2 1.2 0
1.37143 1.2 0
1.54286 1.2 0
1.71429 1.2 0
1.88571 1.2 0
2.05714 1.2 0
2.22857 1.2 0
2.4 1.2 0
2.57143 1.2 0
2.74286 1.2 0
2.91429 1.2 0
3.08571 1.2 0
3.25714 1.2 0
3.42857 1.2 0
3.6 1.2 0
3.77143 1.2 0
3.94286 1.2 0
4.11429 1.2 0
4.28571 1.2 0
4.45714 1.2 0
4.62857 1.2 0
4.8 1.2 0
4.97143 1.2 0
5.14286 1.2 0
5.31429 1.2 0
5.48571 1.2 0
5.65714 1.2 0
5.82857 1.2 0
6 1.2 0
0 1.4 0
0.171429 1.4 0
0.342857 1.4 0
0.514286 1.4 0
0.685714 1.4 0
0.857143 1.4 0
1.02857 1.4 0
1.2 1.4 0
1.37143 1.4 0
1.54286 1.4 0
1.71429 1.4 0
1.88571 1.4 0
2.05714 1.4 0
2.22857 1.4 0
2.4 1.4 0
2.57143 1.4 0
2.74286 1.4 0
2.91429 1.4 0
3.08571 1.4 0
3.25714 1.4 0
3.42857 1.4 0
3.6 1.4 0
3.77143 1.4 0
3.94286 1.4 0
4.11429 1.4 0
4.28571 1.4 0
4.45714 1.4 0
4.62857 1.4 0
4.8 1.4 0
4.97143 1.4 0
5.14286 1.4 0
5.31429 1.4 0
5.48571 1.4 0
5.65714 1.4 0
5.82857 1.4 0
6 1.4 0
0 1.6 0
0.171429 1.6 0
0.342857 1.6 0
0.514286 1.6 0
0.685714 1.6 0
0.857143 1.6 0
1.02857 1.6 0
1.2 1.6 0
1.37143 1.6 0
1.54286 1.6 0
1.71429 1.6 0
1.88571 1.6 0
2.05714 1.6 0
2.22857 1.6 0
2.4 1.6 0
2.57143 1.6 0
2.74286 1.6 0
2.91429 1.6 0
3.08571 1.6 0
3.25714 1.6 0
3.42857 1.6 0
3.6 1.6 0
3.77143 1.6 0
3.94286 1.6 0
4.11429 1.6 0
4.28571 1.6 0
4.45714 1.6 0
4.62857 1.6 0
4.8 1.6 0
4.97143 1.6 0
5.14286 1.6 0
5.31429 1.6 0
5.48571 1.6 0
5.65714 1.6 0
5.82857 1.6 0
6 1.6 0
0 1.8 0
0.171429 1.8 0
0.342857 1.8 0
0.514286 1.8 0
0.685714 1.8 0
0.857143 1.8 0
1.02857 1.8 0
1.2 1.8 0
1.37143 1.8 0
1.54286 1.8 0
1.71429 1.8 0
1.88571 1.8 0
2.05714 1.8 0
2.22857 1.8 0
2.4 1.8 0
2.57143 1.8 0
2.74286 1.8 0
2.91429 1.8 0
3.08571 1.8 0
3.25714 1.8 0
3.42857 1.8 0
3.6 1.8 0
3.77143 1.8 0
3.94286 1.8 0
4.11429 1.8 0
4.28571 1.8 0
4.45714 1.8 0
4.62857 1.8 0
4.8 1.8 0
4.97143 1.8 0
5.14286 1.8 0
5.31429 1.8 0
5.48571 1.8 0
5.65714 1.8 0
5.82857 1.8 0
6 1.8 0
0 2 0
0.171429 2 0
0.342857 2 0
0.514286 2 0
0.685714 2 0
0.857143 2 0
1.02857 2 0
1.2 2 0
1.37143 2 0
1.54286 2 0
1.71429 2 0
1.88571 2 0
2.05714 2 0
2.22857 2 0
2.4 2 0
2.57143 2 0
2.74286 2 0
2.91429 2 0
3.08571 2 0
3.25714 2 0
3.42857 2 0
3.6 2 0
3.77143 2 0
3.94286 2 0
4.11429 2 0
4.28571 2 0
4.45714 2 0
4.62857 2 0
4.8 2 0
4.97143 2 0
5.14286 2 0
5.31429 2 0
5.48571 2 0
5.65714 2 0
5.82857 2 0
6 2 0
0 2.2 0
0.171429 2.2 0
0.342857 2.2 0
0.514286 2.2 0
0.685714 2.2 0
0.857143 2.2 0
1.02857 2.2 0
1.2 2.2 0
1.37143 2.2 0
1.54286 2.2 0
1.71429 2.2 0
1.88571 2.2 0
2.05714 2.2 0
2.22857 2.2 0
2.4 2.2 0
2.57143 2.2 0
2.74286 2.2 0
2.91429 2.2 0
3.08571 2.2 0
3.25714 2.2 0
3.42857 2.2 0
3.6 2.2 0
3.77143 2.2 0
3.94286 2.2 0
4.11429 2.2 0
4.28571 2.2 0
4.45714 2.2 0
4.62857 2.2 0
4.8 2.2 0
4.97143 2.2 0
5.14286 2.2 0
5.31429 2.2 0
5.48571 2.2 0
5.65714 2.2 0
5.82857 2.2 0
6 2.2 0
0 2.4 0
0.171429 2.4 0
0.342857 2.4 0
0.514286 2.4 0
0.685714 2.4 0
0.857143 2.4 0
1.02857 2.4 0
1.2 2.4 0
1.37143 2.4 0
1.54286 2.4 0
1.71429 2.4 0
1.88571 2.4 0
2.05714 2.4 0
2.22857 2.4 0
2.4 2.4 0
2.57143 2.4 0
2.74286 2.4 0
2.91429 2.4 0
3.08571 2.4 0
3.25714 2.4 0
3.42857 2.4 0
3.6 2.4 0
3.77143 2.4 0
3.94286 2.4 0
4.11429 2.4 0
4.28571 2.4 0
4.45714 2.4 0
4.62857 2.4 0
4.8 2.4 0
4.97143 2.4 0
5.14286 2.4 0
5.31429 2.4 0
5.48571 2.4 0
5.65714 2.4 0
5.82857 2.4 0
6 2.4 0
0 2.6 0
0.171429 2.6 0
0.342857 2.6 0
0.514286 2.6 0
0.685714 2.6 0
0.857143 2.6 0
1.02857 2.6 0
1.2 2.6 0
1.37143 2.6 0
1.54286 2.6 0
1.71429 2.6 0
1.88571 2.6 0
2.05714 2.6 0
2.22857 2.6 0
2.4 2.6 0
2.57143 2.6 0
2.74286 2.6 0
2.91429 2.6 0
3.08571 2.6 0
3.25714 2.6 0
3.42857 2.6 0
3.6 2.6 0
3.77143 2.6 0
3.94286 2.6 0
4.11429 2.6 0
4.28571 2.6 0
4.45714 2.6 0
4.62857 2.6 0
4.8 2.6 0
4.97143 2.6 0
5.14286 2.6 0
5.31429 2.6 0
5.48571 2.6 0
5.65714 2.6 0
5.82857 2.6 0
6 2.6 0
0 2.8 0
0.171429 2.8 0
0.342857 2.8 0
0.514286 2.8 0
0.685714 2.8 0
0.857143 2.8 0
1.02857 2.8 0
1.2 2.8 0
1.37143 2.8 0
1.54286 2.8 0
1.71429 2.8 0
1.88571 2.8 0
2.05714 2.8 0
2.22857 2.8 0
2.4 2.8 0
2.57143 2.8 0
2.74286 2.8 0
2.91429 2.8 0
3.08571 2.8 0
3.25714 2.8 0
3.42857 2.8 0
3.6 2.8 0
3.77143 2.8 0
3.94286 2.8 0
4.11429 2.8 0
4.28571 2.8 0
4.45714 2.8 0
4.62857 2.8 0
4.8 2.8 0
4.97143 2.8 0
5.14286 2.8 0
5.31429 2.8 0
5.48571 2.8 0
5.65714 2.8 0
5.82857 2.8 0
6 2.8 0
0 3 0
0.171429 3 0
0.342857 3 0
0.514286 3 0
0.685714 3 0
0.857143 3 0
1.02857 3 0
1.2 3 0
1.37143 3 0
1.54286 3 0
1.71429 3 0
1.88571 3 0
2.05714 3 0
2.22857 3 0
2.4 3 0
2.57143 3 0
2.74286 3 0
2.91429 3 0
3.08571 3 0
3.25714 3 0
3.42857 3 0
3.6 3 0
3.77143 3 0
3.94286 3 0
4.11429 3 0
4.28571 3 0
4.45714 3 0
4.62857 3 0
4.8 3 0
4.97143 3 0
5.14286 3 0
5.31429 3 0
5.48571 3 0
5.65714 3 0
5.82857 3 0
6 3 0
0 3.2 0
0.171429 3.2 0
0.342857 3.2 0
0.514286 3.2 0
0.685714 3.2 0
0.857143 3.2 0
1.02857 3.2 0
1.2 3.2 0
1.37143 3.2 0
1.54286 3.2 0
1.71429 3.2 0
1.88571 3.2 0
2.05714 3.2 0
2.22857 3.2 0
2.4 3.2 0
2.57143 3.2 0
2.74286 3.2 0
2.91429 3.2 0
3.08571 3.2 0
3.25714 3.2 0
3.42857 3.2 0
3.6 3.2 0
3.77143 3.2 0
3.94286 3.2 0
4.11429 3.2 0
4.28571 3.2 0
4.45714 3.2 0
4.62857 3.2 0
4.8 3.2 0
4.97143 3.2 0
5.14286 3.2 0
5.31429 3.2 0
5.48571 3.2 0
5.65714 3.2 0
5.82857 3.2 0
6 3.2 0
0 3.4 0
0.171429 3.4 0
0.342857 3.4 0
0.514286 3.4 0
0.685714 3.4 0
0.857143 3.4 0
1.02857 3.4 0
1.2 3.4 0
1.37143 3.4 0
1.54286 3.4 0
1.71429 3.4 0
1.88571 3.4 0
2.05714 3.4 0
2.22857 3.4 0
2.4 3.4 0
2.57143 3.4 0
2.74286 3.4 0
2.91429 3.4 0
3.08571 3.4 0
3.25714 3.4 0
3.42857 3.4 0
3.6 3.4 0
3.77143 3.4 0
3.94286 3.4 0
4.11429 3.4 0
4.28571 3.4 0
4.45714 3.4 0
4.62857 3.4 0
4.8 3.4 0
4.97143 3.4 0
5.14286 3.4 0
5.31429 3.4 0
5.48571 3.4 0
5.65714 3.4 0
5.82857 3.4 0
6 3.4 0
0 3.6 0
0.171429 3.6 0
0.342857 3.6 0
0.514286 3.6 0
0.685714 3.6 0
0.857143 3.6 0
1.02857 3.6 0
1.2 3.6 0
1.37143 3.6 0
1.54286 3.6 0
1.71429 3.6 0
1.88571 3.6 0
2.05714 3.6 0
2.22857 3.6 0
2.4 3.6 0
2.57143 3.6 0
2.74286 3.6 0
2.91429 3.6 0
3.08571 3.6 0
3.25714 3.6 0
3.42857 3.6 0
3.6 3.6 0
3.77143 3.6 0
3.94286 3.6 0
4.11429 3.6 0
4.28571 3.6 0
4.45714 3.6 0
4.62857 3.6 0
4.8 3.6 0
4.97143 3.6 0
5.14286 3.6 0
5.31429 3.6 0
5.48571 3.6 0
5.65714 3.6 0
5.82857 3.6 0
6 3.6 0
0 3.8 0
0.171429 3.8 0
0.342857 3.8 0
0.514286 3.8 0
0.685714 3.8 0
0.857143 3.8 0
1.02857 3.8 0
1.2 3.8 0
1.37143 3.8 0
1.54286 3.8 0
1.71429 3.8 0
1.88571 3.8 0
2.05714 3.8 0
2.22857 3.8 0
2.4 3.8 0
2.57143 3.8 0
2.74286 3.8 0
2.91429 3.8 0
3.08571 3.8 0
3.25714 3.8 0
3.42857 3.8 0
3.6 3.8 0
3.77143 3.8 0
3.94286 3.8 0
4.11429 3.8 0
4.28571 3.8 0
4.45714 3.8 0
4.62857 3.8 0
4.8 3.8 0
4.97143 3.8 0
5.14286 3.8 0
5.31429 3.8 0
5.48571 3.8 0
5.65714 3.8 0
5.82857 3.8 0
6 3.8 0
0 4 0
0.171429 4 0
0.342857 4 0
0.514286 4 0
0.685714 4 0
0.857143 4 0
1.02857 4 0
1.2 4 0
1.37143 4 0
1.54286 4 0
1.71429 4 0
1.88571 4 0
2.05714 4 0
2.22857 4 0
2.4 4 0
2.57143 4 0
2.74286 4 0
2.91429 4 0
3.08571 4 0
3.25714 4 0
3.42857 4 0
3.6 4 0
3.77143 4 0
3.94286 4 0
4.11429 4 0
4.28571 4 0
4.45714 4 0
4.62857 4 0
4.8 4 0
4.97143 4 0
5.14286 4 0
5.31429 4 0
5.48571 4 0
5.65714 4 0
5.82857 4 0
6 4 0
0 4.2 0
0.171429 4.2 0
0.342857 4.2 0
0.514286 4.2 0
0.685714 4.2 0
0.857143 4.2 0
1.02857 4.2 0
1.2 4.2 0
1.37143 4.2 0
1.54286 4.2 0
1.71429 4.2 0
1.88571 4.2 0
2.05714 4.2 0
2.22857 4.2 0
2.4 4.2 0
2.57143 4.2 0
2.74286 4.2 0
2.91429 4.2 0
3.08571 4.2 0
3.25714 4.2 0
3.42857 4.2 0
3.6 4.2 0
3.77143 4.2 0
3.94286 4.2 0
4.11429 4.2 0
4.28571 4.2 0
4.45714 4.2 0
4.62857 4.2 0
4.8 4.2 0
4.97143 4.2 0
5.14286 4.2 0
5.31429 4.2 0
5.48571 4.2 0
5.65714 4.2 0
5.82857 4.2 0
6 4.2 0
0 4.4 0
0.171429 4.4 0
0.342857 4.4 0
0.514286 4.4 0
0.685714 4.4 0
0.857143 4.4 0
1.02857 4.4 0
1.2 4.4 0
1.37143 4.4 0
1.54286 4.4 0
1.71429 4.4 0
1.88571 4.4 0
2.05714 4.4 0
2.22857 4.4 0
2.4 4.4 0
2.57143 4.4 0
2.74286 4.4 0
2.91429 4.4 0
3.08571 4.4 0
3.25714 4.4 0
3.42857 4.4 0
3.6 4.4 0
3.77143 4.4 0
3.94286 4.4 0
4.11429 4.4 0
4.28571 4.4 0
4.45714 4.4 0
4.62857 4.4 0
4.8 4.4 0
4.97143 4.4 0
5.14286 4.4 0
5.31429 4.4 0
5.48571 4.4 0
5.65714 4.4 0
5.82857 4.4 0
6 4.4 0
0 4.6 0
0.171429 4.6 0
0.342857 4.6 0
0.514286 4.6 0
0.685714 4.6 0
0.857143 4.6 0
1.02857 4.6 0
1.2 4.6 0
1.37143 4.6 0
1.54286 4.6 0
1.71429 4.6 0
1.88571 4.6 0
2.05714 4.6 0
2.22857 4.6 0
2.4 4.6 0
2.57143 4.6 0
2.74286 4.6 0
2.91429 4.6 0
3.08571 4.6 0
3.25714 4.6 0
3.42857 4.6 0
3.6 4.6 0
3.77143 4.6 0
3.94286 4.6 0
4.11429 4.6 0
4.28571 4.6 0
4.45714 4.6 0
4.62857 4.6 0
4.8 4.6 0
4.97143 4.6 0
5.14286 4.6 0
5.31429 4.6 0
5.48571 4.6 0
5.65714 4.6 0
5.82857 4.6 0
6 4.6 0
0 4.8 0
0.171429 4.8 0
0.342857 4.8 0
0.514286 4.8 0
0.685714 4.8 0
0.857143 4.8 0
1.02857 4.8 0
1.2 4.8 0
1.37143 4.8 0
1.54286 4.8 0
1.71429 4.8 0
1.88571 4.8 0
2.05714 4.8 0
2.22857 4.8 0
2.4 4.8 0
2.57143 4.8 0
2.74286 4.8 0
2.91429 4.8 0
3.08571 4.8 0
3.25714 4.8 0
3.42857 4.8 0
3.6 4.8 0
3.77143 4.8 0
3.94286 4.8 0
4.11429 4.8 0
4.28571 4.8 0
4.45714 4.8 0
4.62857 4.8 0
4.8 4.8 0
4.97143 4.8 0
5.14286 4.8 0
5.31429 4.8 0
5.48571 4.8 0
5.65714 4.8 0
5.82857 4.8 0
6 4.8 0
0 5 0
0.171429 5 0
0.342857 5 0
0.514286 5 0
0.685714 5 0
0.857143 5 0
1.02857 5 0
1.2 5 0
1.37143 5 0
1.54286 5 0
1.71429 5 0
1.88571 5 0
2.05714 5 0
2.22857 5 0
2.4 5 0
2.57143 5 0
2.74286 5 0
2.91429 5 0
3.08571 5 0
3.25714 5 0
3.42857 5 0
3.6 5 0
3.77143 5 0
3.94286 5 0
4.11429 5 0
4.28571 5 0
4.45714 5 0
4.62857 5 0
4.8 5 0
4.97143 5 0
5.14286 5 0
5.31429 5 0
5.48571 5 0
5.65714 5 0
5.82857 5 0
6 5 0

CELL_DATA 875
SCALARS phi float
LOOKUP_TABLE default 
4.711
4.711
4.711
4.711
4.711
4.711
4.711
4.711
4.711
4.711
4.711
4.711
4.711
4.711
4.711
4.711
4.711
4.711
4.711
4.711
4.711
4.711
4.711
4.711
4.711
4.711
4.711
4.711
4.711
4.711
4.711
4.711
4.711
4.711
4.711
4.711
4.711
4.711
4.711
4.711
4.711
4.711
4.711
4.711
4.711
4.711
4.711
4.711
4.711
4.711
4.711
4.711
4.711
4.711
4.711
4.711
4.711
4.711
4.711
4.711
4.711
4.711
4.711
4.711
4.711
4.711
4.711
4.711
4.711
4.711
4.711
4.711
4.711
4.711
4.711
4.711
4.711
4.711
4.711
4.711
4.711
4.711
4.711
4.711
4.711
4.711
4.711
4.711
4.711
4.711
4.711
4.711
4.711
4.711
4.711
4.711
4.711
4.711
4.711
4.711
4.711
4.711
4.711
4.711
4.711
4.711
4.711
4.711
4.711
4.711
4.711
4.711
4.711
4.711
4.711
4.711
4.711
4.711
4.711
4.711
4.711
4.711
4.711
4.711
4.711
4.711
4.711
4.711
4.711
4.711
4.711
4.711
4.711
4.711
4.711
4.711
4.711
4.711
4.711
4.711
4.711
4.711
4.711
4.711
4.711
4.711
4.711
4.711
4.711
4.711
4.711
4.711
4.711
4.711
4.711
4.711
4.711
4.711
4.711
4.711
4.711
4.711
4.711
4.711
4.711
4.711
4.711
4.711
4.711
4.711
4.711
4.711
4.711
4.711
4.711
4.711
4.711
4.711
4.711
4.711
4.711
4.711
4.711
4.711
4.711
4.711
4.711
4.711
4.711
4.711
4.711
4.711
4.711
4.711
4.711
4.711
4.711
4.711
4.711
4.711
4.711
4.711
4.711
4.711
4.711
4.711
4.711
4.711
4.711
4.711
4.711
4.711
4.711
4.711
4.711
4.711
4.711
4.711
4.711
4.711
4.711
4.711
4.711
4.711
4.711
4.711
4.711
4.711
4.711
4.711
4.711
4.711
4.711
4.711
4.711
4.711
4.711
4.711
4.711
4.711
4.711
4.711
4.711
4.711
4.711
4.711
4.711
4.711
4.711
4.711
4.711
4.711
4.711
4.711
4.711
4.711
4.711
4.711
4.711
4.711
4.711
4.711
4.711
4.711
4.711
4.711
4.711
4.711
4.711
4.711
4.711
4.711
4.711
4.711
4.711
4.711
4.711
4.711
4.711
4.711
4.711
4.711
4.711
4.711
4.711
4.711
4.711
4.711
4.711
4.711
4.711
4.711
4.711
4.711
4.711
4.711
4.711
4.711
4.711
4.711
4.711
4.711
4.711
4.711
4.711
4.711
4.711
4.711
4.711
4.711
4.711
4.711
4.711
4.711
4.711
4.711
4.711
4.711
4.711
4.711
4.711
4.711
4.711
4.711
4.711
4.711
4.711
4.711
4.711
4.711
4.711
4.711
4.711
4.711
4.711
4.711
4.711
4.711
4.711
4.711
4.711
4.711
4.711
4.711
4.711
4.711
4.711
4.711
4.711
4.711
4.711
4.711
4.711
4.711
4.711
4.711
4.711
4.711
4.711
4.711
4.711
4.711
4.711
4.711
4.711
4.711
4.711
4.711
4.711
4.711
4.711
4.711
4.711
4.711
4.711
4.711
4.711
4.711
4.711
4.711
4.711
4.711
4.711
4.711
4.711
4.711
4.711
4.711
4.711
4.711
4.711
4.711
4.711
4.711
4.711
4.711
4.711
4.711
4.711
4.711
4.711
4.711
4.711
4.711
4.711
4.711
4.711
4.711
4.711
4.711
4.711
4.711
4.711
4.711
4.711
4.711
4.711
4.711
4.711
4.711
4.711
4.711
4.711
4.711
4.711
4.711
4.711
4.711
4.711
4.711
4.711
4.711
4.711
4.711
4.711
4.711
4.711
4.711
4.711
4.711
4.711
4.711
4.711
4.711
4.711
4.711
4.711
4.711
4.711
4.711
4.711
4.711
4.711
4.711
4.711
4.711
4.711
4.711
4.711
4.711
4.711
4.711
4.711
4.711
4.711
4.711
4.711
4.711
4.711
4.711
4.711
4.711
4.711
4.711
4.711
4.711
4.711
4.711
4.711
4.711
4.711
4.711
4.711
4.711
4.711
4.711
4.711
4.711
4.711
4.711
4.711
4.711
4.711
4.711
4.711
4.711
4.711
4.711
4.711
4.711
4.711
4.711
4.711
4.711
4.711
4.711
4.711
4.711
4.711
4.711
4.711
4.711
4.711
4.711
4.711
4.711
4.711
4.711
4.711
4.711
4.711
4.711
4.711
4.711
4.711
4.711
4.711
4.711
4.711
4.711
4.711
4.711
4.711
4.711
4.711
4.711
4.711
4.711
4.711
4.711
4.711
4.711
4.711
4.711
4.711
4.711
4.711
4.711
4.711
4.711
4.711
4.711
4.711
4.711
4.711
4.711
4.711
4.711
4.711
4.711
4.711
4.711
4.711
4.711
4.711
4.711
4.711
4.711
4.711
4.711
4.711
4.711
4.711
4.711
4.711
4.711
4.711
4.711
4.711
4.711
4.711
4.711
4.711
4.711
4.711
4.711
4.711
4.711
4.711
4.711
4.711
4.711
4.711
4.711
4.711
4.711
4.711
4.711
4.711
4.711
4.711
4.711
4.711
4.711
4.711
4.711
4.711
4.711
4.711
4.711
4.711
4.711
4.711
4.711
4.711
4.711
4.711
4.711
4.711
4.711
4.711
4.711
4.711
4.711
4.711
4.711
4.711
4.711
4.711
4.711
4.711
4.711
4.711
4.711
4.711
4.711
4.711
4.711
4.711
4.711
4.711
4.711
4.711
4.711
4.711
4.711
4.711
4.711
4.711
4.711
4.711
4.711
4.711
4.711
4.711
4.711
4.711
4.711
4.711
4.711
4.711
4.711
4.711
4.711
4.711
4.711
4.711
4.711
4.711
4.711
4.711
4.711
4.711
4.711
4.711
4.711
4.711
4.711
4.711
4.711
4.711
4.711
4.711
4.711
4.711
4.711
4.711
4.711
4.711
4.711
4.711
4.711
4.711
4.711
4.711
4.711
4.711
4.711
4.711
4.711
4.711
4.711
4.711
4.711
4.711
4.711
4.711
4.711
4.711
4.711
4.711
4.711
4.711
4.711
4.711
4.711
4.711
4.711
4.711
4.711
4.711
4.711
4.711
4.711
4.711
4.711
4.711
4.711
4.711
4.711
4.711
4.711
4.711
4.711
4.711
4.711
4.711
4.711
4.711
4.711
4.711
4.711
4.711
4.711
4.711
4.711
4.711
4.711
4.711
4.711
4.711
4.711
4.711
4.711
4.711
4.711
4.711
4.711
4.711
4.711
4.711
4.711
4.711
4.711
4.711
4.711
4.711
4.711
4.711
4.711
4.711
4.711
4.711
4.711
4.711
4.711
4.711
4.711
4.711
4.711
4.711
4.711
4.711
4.711
4.711
4.711
4.711
4.711
4.711
4.711
4.711
4.711
4.711
4.711
4.711
4.711
4.711
4.711
4.711
4.711
4.711
4.711
4.711
4.711
4.711
4.711
4.711
4.711
4.711
4.711
4.711
4.711
4.711
4.711
4.711
4.711
4.711
4.711
4.711
4.711
4.711
4.711
4.711
4.711
4.711
4.711
4.711
4.711
4.711
4.711
4.711
4.711
4.711
4.711
4.711
4.711
4.711
4.711
4.711
4.711
4.711
4.711
4.711
4.711
4.711
4.711
4.711
4.711
4.711
4.711
4.711
4.711
4.711
4.711
4.711
4.711
4.711
4.711
4.711
4.711
4.711
4.711
4.711
4.711
4.711
4.711
4.711
4.711
4.711
4.711
4.711
4.711
4.711
4.711
4.711

SCALARS p float
LOOKUP_TABLE default 
19.6149
19.6149
19.4733
19.4273
19.4514
19.4514
0
0
0
-138.778
-138.778
-140.726
-143.305
-145.495
-146.355
-145.001
-140.193
-131.646
-119.93
-106.111
-91.3576
-76.6848
-62.8377
-50.2818
-39.2413
-29.7555
-21.7381
-15.0341
-9.45628
-4.77893
-0.844939
2.57206
5.47101
7.95605
10
19.6149
19.6149
19.4733
19.4273
19.4514
19.4514
0
0
0
-138.778
-138.778
-140.726
-143.305
-145.495
-146.355
-145.001
-140.193
-131.646
-119.93
-106.111
-91.3576
-76.6848
-62.8377
-50.2818
-39.2413
-29.7555
-21.7381
-15.0341
-9.45628
-4.77893
-0.844939
2.57206
5.47101
7.95605
10
19.2586
19.2586
19.1687
19.2053
19.3269
19.3269
0
0
0
-141.367
-141.367
-143.657
-146.819
-150.029
-152.054
-151.731
-146.752
-137.225
-124.192
-109.105
-93.3389
-77.9568
-63.6674
-50.8666
-39.708
-30.1729
-22.1264
-15.3892
-9.81077
-5.01339
-0.942505
2.48616
5.40731
7.93634
10
18.2544
18.2544
18.2011
18.3338
18.5856
18.5856
0
0
0
-145.148
-145.148
-147.925
-151.861
-156.03
-158.903
-158.862
-153.647
-143.038
-128.665
-112.35
-95.623
-79.5733
-64.86
-51.815
-40.5298
-30.9516
-22.8788
-16.0301
-10.2362
-5.38506
-1.28823
2.19359
5.18717
7.8086
10
16.2321
16.2321
16.1832
16.3707
16.7277
16.7277
0
0
0
-147.343
-147.343
-150.342
-154.676
-159.461
-163.154
-163.391
-157.86
-146.518
-131.324
-114.296
-97.0453
-80.6649
-65.7514
-52.6082
-41.2635
-31.5901
-23.4471
-16.5853
-10.7992
-5.91429
-1.76446
1.79238
4.88044
7.61522
10
12.8565
12.8565
12.7327
12.8213
13.1358
13.1358
0
0
0
-146.871
-146.871
-149.644
-153.951
-158.815
-162.779
-163.016
-157.079
-145.656
-130.477
-113.545
-96.4573
-80.2771
-65.5927
-52.6568
-41.4866
-31.9629
-23.9045
-17.0949
-11.3303
-6.42922
-2.23228
1.39722
4.57794
7.4213
10
7.98061
7.98061
7.59648
7.148
6.82591
6.82591
0
0
0
-144.919
-144.919
-147.176
-151.171
-155.888
-159.307
-157.208
-150.463
-139.303
-125.042
-109.268
-93.3209
-78.1333
-64.2523
-51.9279
-41.2017
-31.9872
-24.1269
-17.4355
-11.728
-6.83568
-2.61038
1.07519
4.33143
7.26216
10
1.86509
1.86509
0.912646
-1.06398
-4.56199
-4.56199
-59.0174
-77.6512
-95.6656
-145.845
-145.845
-144.143
-146.723
-149.402
-149.708
-146.501
-139.596
-129.366
-116.726
-102.788
-88.5693
-74.8431
-62.1127
-50.6451
-40.5277
-31.7263
-24.1311
-17.598
-11.9728
-7.10859
-2.87316
0.848789
4.15794
7.14867
10
-4.60412
-4.60412
-6.21468
-10.2857
-19.8536
-44.8434
-59.0174
-77.6512
-95.6656
-135.87
-134.043
-135.252
-137.462
-138.763
-137.771
-134.274
-127.947
-119.027
-108.135
-96.0613
-83.583
-71.3388
-59.7858
-49.2016
-39.7138
-31.3388
-24.0162
-17.6449
-12.1045
-7.27316
-3.03663
0.707602
4.05043
7.07678
10
-10.1981
-10.1981
-11.9279
-16.1177
-24.4368
-39.259
-59.0174
-77.6512
-95.6656
-109.181
-117.217
-122.613
-126.216
-127.831
-127.028
-123.861
-118.263
-110.481
-100.996
-90.4126
-79.3434
-68.323
-57.7613
-47.933
-38.9895
-30.9841
-23.8955
-17.6596
-12.1869
-7.37916
-3.13966
0.621898
3.9876
7.03419
10
-14.2492
-14.2492
-15.7701
-19.3094
-25.7094
-35.9259
-49.8537
-65.1636
-80.373
-93.8813
-104.287
-111.797
-116.7
-119.059
-118.833
-116.187
-111.258
-104.337
-95.8573
-86.3262
-76.2622
-66.1288
-56.2976
-47.0336
-38.4992
-30.7701
-23.853
-17.7107
-12.2783
-7.47739
-3.22612
0.555374
3.9421
7.00475
10
-16.6014
-16.6014
-17.8754
-20.7926
-25.8806
-33.7943
-44.8148
-57.9747
-71.8977
-85.095
-96.2337
-104.743
-110.482
-113.455
-113.739
-111.534
-107.083
-100.718
-92.8569
-83.9648
-74.51
-64.916
-55.5304
-46.6107
-38.3237
-30.7579
-23.9363
-17.8391
-12.4171
-7.60556
-3.33285
0.473808
3.88528
6.96977
10
-17.3183
-17.3183
-18.4246
-20.9681
-25.4043
-32.389
-42.4038
-54.8828
-68.5273
-81.7835
-93.2598
-102.185
-108.281
-111.522
-112.019
-110.002
-105.753
-99.6172
-92.0042
-83.3613
-74.1374
-64.7411
-55.5116
-46.7047
-38.4906
-30.9643
-24.1564
-18.0546
-12.6163
-7.78173
-3.48306
0.350369
3.78888
6.90387
10
-16.6014
-16.6014
-17.8754
-20.7926
-25.8806
-33.7943
-44.8148
-57.9747
-71.8977
-85.095
-96.2337
-104.743
-110.482
-113.455
-113.739
-111.534
-107.083
-100.718
-92.8569
-83.9648
-74.51
-64.916
-55.5304
-46.6107
-38.3237
-30.7579
-23.9363
-17.8391
-12.4171
-7.60556
-3.33285
0.473808
3.88528
6.96977
10
-14.2492
-14.2492
-15.7701
-19.3094
-25.7094
-35.9259
-49.8537
-65.1636
-80.373
-93.8813
-104.287
-111.797
-116.7
-119.059
-118.833
-116.187
-111.258
-104.337
-95.8573
-86.3262
-76.2622
-66.1288
-56.2976
-47.0336
-38.4992
-30.7701
-23.853
-17.7107
-12.2783
-7.47739
-3.22612
0.555374
3.9421
7.00475
10
-10.1981
-10.1981
-11.9279
-16.1177
-24.4368
-39.259
-59.0174
-77.6512
-95.6656
-109.181
-117.217
-122.613
-126.216
-127.831
-127.028
-123.861
-118.263
-110.481
-100.996
-90.4126
-79.3434
-68.323
-57.7613
-47.933
-38.9895
-30.9841
-23.8955
-17.6596
-12.1869
-7.37916
-3.13966
0.621898
3.9876
7.03419
10
-4.60412
-4.60412
-6.21468
-10.2857
-19.8536
-44.8434
-59.0174
-77.6512
-95.6656
-135.87
-134.043
-135.252
-137.462
-138.763
-137.771
-134.274
-127.947
-119.027
-108.135
-96.0613
-83.583
-71.3388
-59.7858
-49.2016
-39.7138
-31.3388
-24.0162
-17.6449
-12.1045
-7.27316
-3.03663
0.707602
4.05043
7.07678
10
1.86509
1.86509
0.912645
-1.06398
-4.56199
-4.56199
-59.0174
-77.6512
-95.6656
-145.845
-145.845
-144.143
-146.723
-149.402
-149.708
-146.501
-139.596
-129.366
-116.726
-102.788
-88.5693
-74.8431
-62.1127
-50.6451
-40.5277
-31.7263
-24.1311
-17.598
-11.9728
-7.10859
-2.87316
0.848789
4.15794
7.14867
10
7.98061
7.98061
7.59648
7.148
6.82591
6.82591
0
0
0
-144.919
-144.919
-147.176
-151.171
-155.888
-159.307
-157.208
-150.463
-139.303
-125.042
-109.268
-93.3209
-78.1333
-64.2523
-51.9279
-41.2017
-31.9872
-24.1269
-17.4355
-11.728
-6.83568
-2.61038
1.07519
4.33143
7.26216
10
12.8565
12.8565
12.7327
12.8213
13.1358
13.1358
0
0
0
-146.871
-146.871
-149.644
-153.951
-158.815
-162.779
-163.016
-157.079
-145.656
-130.477
-113.545
-96.4573
-80.2771
-65.5927
-52.6568
-41.4866
-31.9629
-23.9045
-17.0949
-11.3303
-6.42922
-2.23228
1.39722
4.57794
7.4213
10
16.2321
16.2321
16.1832
16.3707
16.7277
16.7277
0
0
0
-147.343
-147.343
-150.342
-154.676
-159.461
-163.154
-163.391
-157.86
-146.518
-131.324
-114.296
-97.0453
-80.6649
-65.7514
-52.6082
-41.2635
-31.5901
-23.4471
-16.5853
-10.7992
-5.91429
-1.76446
1.79238
4.88044
7.61522
10
18.2544
18.2544
18.2011
18.3338
18.5856
18.5856
0
0
0
-145.148
-145.148
-147.925
-151.861
-156.03
-158.903
-158.862
-153.647
-143.038
-128.665
-112.35
-95.623
-79.5733
-64.86
-51.815
-40.5298
-30.9516
-22.8788
-16.0301
-10.2362
-5.38506
-1.28823
2.19359
5.18717
7.8086
10
19.2586
19.2586
19.1687
19.2053
19.3269
19.3269
0
0
0
-141.367
-141.367
-143.657
-146.819
-150.029
-152.054
-151.731
-146.752
-137.225
-124.192
-109.105
-93.3389
-77.9568
-63.6674
-50.8666
-39.708
-30.1729
-22.1264
-15.3892
-9.81077
-5.01339
-0.942505
2.48616
5.40731
7.93634
10
19.6149
19.6149
19.4733
19.4273
19.4514
19.4514
0
0
0
-138.778
-138.778
-140.726
-143.305
-145.495
-146.355
-145.001
-140.193
-131.646
-119.93
-106.111
-91.3576
-76.6848
-62.8377
-50.2818
-39.2413
-29.7555
-21.7381
-15.0341
-9.45628
-4.77893
-0.844938
2.57206
5.47101
7.95605
10
19.6149
19.6149
19.4733
19.4273
19.4514
19.4514
0
0
0
-138.778
-138.778
-140.726
-143.305
-145.495
-146.355
-145.001
-140.193
-131.646
-119.93
-106.111
-91.3576
-76.6848
-62.8377
-50.2818
-39.2413
-29.7555
-21.7381
-15.0341
-9.45628
-4.77893
-0.844938
2.57206
5.47101
7.95605
10

SCALARS  u float
LOOKUP_TABLE default 
0.00966667
0.00652533
0.00681985
0.00771826
0.0115345
0.0264078
0
0
0
0.0762562
0.0738356
0.0729506
0.0719683
0.06691
0.0103978
-0.0541411
-0.0635891
-0.0657574
-0.0651264
-0.0623128
-0.0577171
-0.0519835
-0.0456344
-0.0390531
-0.0325184
-0.0262378
-0.0203697
-0.0150301
-0.0102932
-0.00617913
-0.00265477
0.000350108
0.0027551
0.00458652
0.00458652
0.0364718
0.0346088
0.0325693
0.0307623
0.0343894
0.0593159
0
0
0
0.139497
0.112223
0.096013
0.080227
0.0605982
-0.0175358
-0.161196
-0.219896
-0.23306
-0.233035
-0.224136
-0.207921
-0.187233
-0.164136
-0.140038
-0.115913
-0.092478
-0.0702903
-0.0497779
-0.031271
-0.0148283
-0.000698946
0.0113255
0.0213431
0.0294541
0.0311858
0.0592565
0.0568788
0.0529556
0.0483145
0.0483244
0.0673961
0
0
0
0.143399
0.119708
0.109159
0.0991189
0.0883991
0.0680337
-0.0176692
-0.0903551
-0.148385
-0.173153
-0.178627
-0.169359
-0.15247
-0.132168
-0.110617
-0.0888637
-0.0674982
-0.0468983
-0.0272825
-0.00880033
0.00808519
0.0231789
0.0366218
0.0484807
0.058512
0.0608329
0.079554
0.076448
0.0707949
0.0634259
0.0597355
0.0720146
0
0
0
0.149219
0.133834
0.131856
0.130006
0.127116
0.120908
0.105008
0.0695762
0.00610351
-0.0429023
-0.0867472
-0.099158
-0.0927676
-0.0791135
-0.0630242
-0.0462868
-0.0296437
-0.0134201
0.00202984
0.0166861
0.0302787
0.0429679
0.0546855
0.065313
0.0745445
0.07671
0.0976801
0.0941733
0.0874187
0.0779061
0.0707574
0.0753212
0
0
0
0.155588
0.149858
0.156801
0.163825
0.169348
0.170641
0.165546
0.152055
0.126859
0.085244
0.0285509
-0.0073056
-0.0190531
-0.0156937
-0.00707749
0.00326381
0.0141044
0.0248891
0.0352079
0.045044
0.0544378
0.0633756
0.0718032
0.079613
0.0865051
0.0880892
0.113699
0.110332
0.1036
0.0931575
0.0828846
0.0781015
0
0
0
0.160987
0.164839
0.179645
0.194391
0.207457
0.216332
0.218094
0.210065
0.191177
0.162275
0.124932
0.0874018
0.0638549
0.0555925
0.0549059
0.057646
0.0619352
0.0668348
0.0718747
0.0768578
0.0817067
0.0864106
0.0909637
0.0953094
0.0992146
0.100066
0.127635
0.125213
0.120427
0.111717
0.0996905
0.0905928
0
0
0
0.161797
0.183265
0.202699
0.223039
0.242043
0.257489
0.26448
0.259695
0.244451
0.22159
0.194322
0.166728
0.143847
0.128388
0.119244
0.114238
0.111752
0.110729
0.110499
0.110659
0.111001
0.111458
0.112036
0.112739
0.113451
0.11355
0.139504
0.139
0.138955
0.137671
0.133598
0.182596
0.187546
0.208535
0.249979
0.347864
0.336607
0.330422
0.331905
0.335273
0.335447
0.329932
0.318298
0.301132
0.279974
0.256759
0.233522
0.212194
0.194137
0.179761
0.168715
0.160324
0.153866
0.148714
0.144376
0.140532
0.137025
0.133835
0.131009
0.128574
0.127967
0.149284
0.151107
0.157407
0.168508
0.187777
0.227021
0.2603
0.288547
0.337986
0.376654
0.374036
0.375272
0.378648
0.380786
0.37947
0.373642
0.36295
0.34789
0.329526
0.309163
0.288118
0.267572
0.24846
0.231383
0.216579
0.203971
0.19326
0.18403
0.175856
0.168389
0.161416
0.154883
0.148862
0.143523
0.14229
0.156902
0.160199
0.170431
0.188666
0.2175
0.256051
0.292554
0.32457
0.35916
0.385582
0.396586
0.404344
0.409852
0.412464
0.411384
0.406241
0.396942
0.383854
0.367693
0.349363
0.329818
0.309959
0.290563
0.272235
0.255376
0.240159
0.226543
0.214318
0.203178
0.192817
0.183016
0.173704
0.164975
0.157125
0.155367
0.162325
0.166024
0.17716
0.196928
0.226537
0.264468
0.303398
0.33869
0.370183
0.395344
0.412815
0.424896
0.432681
0.436436
0.436076
0.43156
0.423078
0.411036
0.396033
0.378792
0.360086
0.340669
0.321221
0.302313
0.284371
0.267653
0.252232
0.238019
0.224803
0.212331
0.200404
0.188956
0.178103
0.168245
0.166072
0.165563
0.169083
0.179482
0.197907
0.225133
0.26019
0.298698
0.336003
0.369394
0.396984
0.418086
0.433253
0.443136
0.448198
0.448737
0.444993
0.437322
0.426173
0.412107
0.395767
0.377833
0.358978
0.339822
0.320901
0.302635
0.285302
0.26902
0.253755
0.239348
0.225589
0.2123
0.199433
0.187126
0.17585
0.173373
0.166636
0.169942
0.17963
0.196793
0.222188
0.255293
0.292897
0.33064
0.365126
0.394166
0.416884
0.433445
0.444352
0.450104
0.451145
0.447866
0.440678
0.430047
0.41652
0.400709
0.383262
0.364821
0.345982
0.327264
0.30908
0.291709
0.275275
0.259755
0.245003
0.230816
0.217026
0.203596
0.19068
0.178769
0.176119
0.165563
0.169083
0.179482
0.197907
0.225133
0.26019
0.298698
0.336003
0.369394
0.396984
0.418086
0.433253
0.443136
0.448198
0.448737
0.444993
0.437322
0.426173
0.412107
0.395767
0.377833
0.358978
0.339822
0.320901
0.302635
0.285302
0.26902
0.253755
0.239348
0.225589
0.2123
0.199433
0.187126
0.17585
0.173373
0.162325
0.166024
0.17716
0.196928
0.226537
0.264468
0.303398
0.33869
0.370183
0.395344
0.412815
0.424896
0.432681
0.436436
0.436076
0.43156
0.423078
0.411036
0.396033
0.378792
0.360086
0.340669
0.321221
0.302313
0.284371
0.267653
0.252232
0.238019
0.224803
0.212331
0.200404
0.188956
0.178103
0.168245
0.166072
0.156902
0.160199
0.170431
0.188666
0.2175
0.256051
0.292554
0.32457
0.35916
0.385582
0.396586
0.404344
0.409852
0.412464
0.411384
0.406241
0.396942
0.383854
0.367693
0.349363
0.329818
0.309959
0.290563
0.272235
0.255376
0.240159
0.226543
0.214318
0.203178
0.192817
0.183016
0.173704
0.164975
0.157125
0.155367
0.149284
0.151107
0.157407
0.168508
0.187777
0.227021
0.2603
0.288547
0.337986
0.376654
0.374036
0.375272
0.378648
0.380786
0.37947
0.373642
0.36295
0.34789
0.329526