# vtk DataFile Version 3.0
vtk output175
ASCII
DATASET STRUCTURED_GRID
DIMENSIONS 36 26 1
POINTS 936 float
0 0 0
0.171429 0 0
0.342857 0 0
0.514286 0 0
0.685714 0 0
0.857143 0 0
1.02857 0 0
1.2 0 0
1.37143 0 0
1.54286 0 0
1.71429 0 0
1.88571 0 0
2.05714 0 0
2.22857 0 0
2.4 0 0
2.57143 0 0
2.74286 0 0
2.91429 0 0
3.08571 0 0
3.25714 0 0
3.42857 0 0
3.6 0 0
3.77143 0 0
3.94286 0 0
4.11429 0 0
4.28571 0 0
4.45714 0 0
4.62857 0 0
4.8 0 0
4.97143 0 0
5.14286 0 0
5.31429 0 0
5.48571 0 0
5.65714 0 0
5.82857 0 0
6 0 0
0 0.2 0
0.171429 0.2 0
0.342857 0.2 0
0.514286 0.2 0
0.685714 0.2 0
0.857143 0.2 0
1.02857 0.2 0
1.2 0.2 0
1.37143 0.2 0
1.54286 0.2 0
1.71429 0.2 0
1.88571 0.2 0
2.05714 0.2 0
2.22857 0.2 0
2.4 0.2 0
2.57143 0.2 0
2.74286 0.2 0
2.91429 0.2 0
3.08571 0.2 0
3.25714 0.2 0
3.42857 0.2 0
3.6 0.2 0
3.77143 0.2 0
3.94286 0.2 0
4.11429 0.2 0
4.28571 0.2 0
4.45714 0.2 0
4.62857 0.2 0
4.8 0.2 0
4.97143 0.2 0
5.14286 0.2 0
5.31429 0.2 0
5.48571 0.2 0
5.65714 0.2 0
5.82857 0.2 0
6 0.2 0
0 0.4 0
0.171429 0.4 0
0.342857 0.4 0
0.514286 0.4 0
0.685714 0.4 0
0.857143 0.4 0
1.02857 0.4 0
1.2 0.4 0
1.37143 0.4 0
1.54286 0.4 0
1.71429 0.4 0
1.88571 0.4 0
2.05714 0.4 0
2.22857 0.4 0
2.4 0.4 0
2.57143 0.4 0
2.74286 0.4 0
2.91429 0.4 0
3.08571 0.4 0
3.25714 0.4 0
3.42857 0.4 0
3.6 0.4 0
3.77143 0.4 0
3.94286 0.4 0
4.11429 0.4 0
4.28571 0.4 0
4.45714 0.4 0
4.62857 0.4 0
4.8 0.4 0
4.97143 0.4 0
5.14286 0.4 0
5.31429 0.4 0
5.48571 0.4 0
5.65714 0.4 0
5.82857 0.4 0
6 0.4 0
0 0.6 0
0.171429 0.6 0
0.342857 0.6 0
0.514286 0.6 0
0.685714 0.6 0
0.857143 0.6 0
1.02857 0.6 0
1.2 0.6 0
1.37143 0.6 0
1.54286 0.6 0
1.71429 0.6 0
1.88571 0.6 0
2.05714 0.6 0
2.22857 0.6 0
2.4 0.6 0
2.57143 0.6 0
2.74286 0.6 0
2.91429 0.6 0
3.08571 0.6 0
3.25714 0.6 0
3.42857 0.6 0
3.6 0.6 0
3.77143 0.6 0
3.94286 0.6 0
4.11429 0.6 0
4.28571 0.6 0
4.45714 0.6 0
4.62857 0.6 0
4.8 0.6 0
4.97143 0.6 0
5.14286 0.6 0
5.31429 0.6 0
5.48571 0.6 0
5.65714 0.6 0
5.82857 0.6 0
6 0.6 0
0 0.8 0
0.171429 0.8 0
0.342857 0.8 0
0.514286 0.8 0
0.685714 0.8 0
0.857143 0.8 0
1.02857 0.8 0
1.2 0.8 0
1.37143 0.8 0
1.54286 0.8 0
1.71429 0.8 0
1.88571 0.8 0
2.05714 0.8 0
2.22857 0.8 0
2.4 0.8 0
2.57143 0.8 0
2.74286 0.8 0
2.91429 0.8 0
3.08571 0.8 0
3.25714 0.8 0
3.42857 0.8 0
3.6 0.8 0
3.77143 0.8 0
3.94286 0.8 0
4.11429 0.8 0
4.28571 0.8 0
4.45714 0.8 0
4.62857 0.8 0
4.8 0.8 0
4.97143 0.8 0
5.14286 0.8 0
5.31429 0.8 0
5.48571 0.8 0
5.65714 0.8 0
5.82857 0.8 0
6 0.8 0
0 1 0
0.171429 1 0
0.342857 1 0
0.514286 1 0
0.685714 1 0
0.857143 1 0
1.02857 1 0
1.2 1 0
1.37143 1 0
1.54286 1 0
1.71429 1 0
1.88571 1 0
2.05714 1 0
2.22857 1 0
2.4 1 0
2.57143 1 0
2.74286 1 0
2.91429 1 0
3.08571 1 0
3.25714 1 0
3.42857 1 0
3.6 1 0
3.77143 1 0
3.94286 1 0
4.11429 1 0
4.28571 1 0
4.45714 1 0
4.62857 1 0
4.8 1 0
4.97143 1 0
5.14286 1 0
5.31429 1 0
5.48571 1 0
5.65714 1 0
5.82857 1 0
6 1 0
0 1.2 0
0.171429 1.2 0
0.342857 1.2 0
0.514286 1.2 0
0.685714 1.2 0
0.857143 1.2 0
1.02857 1.2 0
1.2 1.2 0
1.37143 1.2 0
1.54286 1.2 0
1.71429 1.2 0
1.88571 1.2 0
2.05714 1.2 0
2.22857 1.2 0
2.4 1.2 0
2.57143 1.2 0
2.74286 1.2 0
2.91429 1.2 0
3.08571 1.2 0
3.25714 1.2 0
3.42857 1.2 0
3.6 1.2 0
3.77143 1.2 0
3.94286 1.2 0
4.11429 1.2 0
4.28571 1.2 0
4.45714 1.2 0
4.62857 1.2 0
4.8 1.2 0
4.97143 1.2 0
5.14286 1.2 0
5.31429 1.2 0
5.48571 1.2 0
5.65714 1.2 0
5.82857 1.2 0
6 1.2 0
0 1.4 0
0.171429 1.4 0
0.342857 1.4 0
0.514286 1.4 0
0.685714 1.4 0
0.857143 1.4 0
1.02857 1.4 0
1.2 1.4 0
1.37143 1.4 0
1.54286 1.4 0
1.71429 1.4 0
1.88571 1.4 0
2.05714 1.4 0
2.22857 1.4 0
2.4 1.4 0
2.57143 1.4 0
2.74286 1.4 0
2.91429 1.4 0
3.08571 1.4 0
3.25714 1.4 0
3.42857 1.4 0
3.6 1.4 0
3.77143 1.4 0
3.94286 1.4 0
4.11429 1.4 0
4.28571 1.4 0
4.45714 1.4 0
4.62857 1.4 0
4.8 1.4 0
4.97143 1.4 0
5.14286 1.4 0
5.31429 1.4 0
5.48571 1.4 0
5.65714 1.4 0
5.82857 1.4 0
6 1.4 0
0 1.6 0
0.171429 1.6 0
0.342857 1.6 0
0.514286 1.6 0
0.685714 1.6 0
0.857143 1.6 0
1.02857 1.6 0
1.2 1.6 0
1.37143 1.6 0
1.54286 1.6 0
1.71429 1.6 0
1.88571 1.6 0
2.05714 1.6 0
2.22857 1.6 0
2.4 1.6 0
2.57143 1.6 0
2.74286 1.6 0
2.91429 1.6 0
3.08571 1.6 0
3.25714 1.6 0
3.42857 1.6 0
3.6 1.6 0
3.77143 1.6 0
3.94286 1.6 0
4.11429 1.6 0
4.28571 1.6 0
4.45714 1.6 0
4.62857 1.6 0
4.8 1.6 0
4.97143 1.6 0
5.14286 1.6 0
5.31429 1.6 0
5.48571 1.6 0
5.65714 1.6 0
5.82857 1.6 0
6 1.6 0
0 1.8 0
0.171429 1.8 0
0.342857 1.8 0
0.514286 1.8 0
0.685714 1.8 0
0.857143 1.8 0
1.02857 1.8 0
1.2 1.8 0
1.37143 1.8 0
1.54286 1.8 0
1.71429 1.8 0
1.88571 1.8 0
2.05714 1.8 0
2.22857 1.8 0
2.4 1.8 0
2.57143 1.8 0
2.74286 1.8 0
2.91429 1.8 0
3.08571 1.8 0
3.25714 1.8 0
3.42857 1.8 0
3.6 1.8 0
3.77143 1.8 0
3.94286 1.8 0
4.11429 1.8 0
4.28571 1.8 0
4.45714 1.8 0
4.62857 1.8 0
4.8 1.8 0
4.97143 1.8 0
5.14286 1.8 0
5.31429 1.8 0
5.48571 1.8 0
5.65714 1.8 0
5.82857 1.8 0
6 1.8 0
0 2 0
0.171429 2 0
0.342857 2 0
0.514286 2 0
0.685714 2 0
0.857143 2 0
1.02857 2 0
1.2 2 0
1.37143 2 0
1.54286 2 0
1.71429 2 0
1.88571 2 0
2.05714 2 0
2.22857 2 0
2.4 2 0
2.57143 2 0
2.74286 2 0
2.91429 2 0
3.08571 2 0
3.25714 2 0
3.42857 2 0
3.6 2 0
3.77143 2 0
3.94286 2 0
4.11429 2 0
4.28571 2 0
4.45714 2 0
4.62857 2 0
4.8 2 0
4.97143 2 0
5.14286 2 0
5.31429 2 0
5.48571 2 0
5.65714 2 0
5.82857 2 0
6 2 0
0 2.2 0
0.171429 2.2 0
0.342857 2.2 0
0.514286 2.2 0
0.685714 2.2 0
0.857143 2.2 0
1.02857 2.2 0
1.2 2.2 0
1.37143 2.2 0
1.54286 2.2 0
1.71429 2.2 0
1.88571 2.2 0
2.05714 2.2 0
2.22857 2.2 0
2.4 2.2 0
2.57143 2.2 0
2.74286 2.2 0
2.91429 2.2 0
3.08571 2.2 0
3.25714 2.2 0
3.42857 2.2 0
3.6 2.2 0
3.77143 2.2 0
3.94286 2.2 0
4.11429 2.2 0
4.28571 2.2 0
4.45714 2.2 0
4.62857 2.2 0
4.8 2.2 0
4.97143 2.2 0
5.14286 2.2 0
5.31429 2.2 0
5.48571 2.2 0
5.65714 2.2 0
5.82857 2.2 0
6 2.2 0
0 2.4 0
0.171429 2.4 0
0.342857 2.4 0
0.514286 2.4 0
0.685714 2.4 0
0.857143 2.4 0
1.02857 2.4 0
1.2 2.4 0
1.37143 2.4 0
1.54286 2.4 0
1.71429 2.4 0
1.88571 2.4 0
2.05714 2.4 0
2.22857 2.4 0
2.4 2.4 0
2.57143 2.4 0
2.74286 2.4 0
2.91429 2.4 0
3.08571 2.4 0
3.25714 2.4 0
3.42857 2.4 0
3.6 2.4 0
3.77143 2.4 0
3.94286 2.4 0
4.11429 2.4 0
4.28571 2.4 0
4.45714 2.4 0
4.62857 2.4 0
4.8 2.4 0
4.97143 2.4 0
5.14286 2.4 0
5.31429 2.4 0
5.48571 2.4 0
5.65714 2.4 0
5.82857 2.4 0
6 2.4 0
0 2.6 0
0.171429 2.6 0
0.342857 2.6 0
0.514286 2.6 0
0.685714 2.6 0
0.857143 2.6 0
1.02857 2.6 0
1.2 2.6 0
1.37143 2.6 0
1.54286 2.6 0
1.71429 2.6 0
1.88571 2.6 0
2.05714 2.6 0
2.22857 2.6 0
2.4 2.6 0
2.57143 2.6 0
2.74286 2.6 0
2.91429 2.6 0
3.08571 2.6 0
3.25714 2.6 0
3.42857 2.6 0
3.6 2.6 0
3.77143 2.6 0
3.94286 2.6 0
4.11429 2.6 0
4.28571 2.6 0
4.45714 2.6 0
4.62857 2.6 0
4.8 2.6 0
4.97143 2.6 0
5.14286 2.6 0
5.31429 2.6 0
5.48571 2.6 0
5.65714 2.6 0
5.82857 2.6 0
6 2.6 0
0 2.8 0
0.171429 2.8 0
0.342857 2.8 0
0.514286 2.8 0
0.685714 2.8 0
0.857143 2.8 0
1.02857 2.8 0
1.2 2.8 0
1.37143 2.8 0
1.54286 2.8 0
1.71429 2.8 0
1.88571 2.8 0
2.05714 2.8 0
2.22857 2.8 0
2.4 2.8 0
2.57143 2.8 0
2.74286 2.8 0
2.91429 2.8 0
3.08571 2.8 0
3.25714 2.8 0
3.42857 2.8 0
3.6 2.8 0
3.77143 2.8 0
3.94286 2.8 0
4.11429 2.8 0
4.28571 2.8 0
4.45714 2.8 0
4.62857 2.8 0
4.8 2.8 0
4.97143 2.8 0
5.14286 2.8 0
5.31429 2.8 0
5.48571 2.8 0
5.65714 2.8 0
5.82857 2.8 0
6 2.8 0
0 3 0
0.171429 3 0
0.342857 3 0
0.514286 3 0
0.685714 3 0
0.857143 3 0
1.02857 3 0
1.2 3 0
1.37143 3 0
1.54286 3 0
1.71429 3 0
1.88571 3 0
2.05714 3 0
2.22857 3 0
2.4 3 0
2.57143 3 0
2.74286 3 0
2.91429 3 0
3.08571 3 0
3.25714 3 0
3.42857 3 0
3.6 3 0
3.77143 3 0
3.94286 3 0
4.11429 3 0
4.28571 3 0
4.45714 3 0
4.62857 3 0
4.8 3 0
4.97143 3 0
5.14286 3 0
5.31429 3 0
5.48571 3 0
5.65714 3 0
5.82857 3 0
6 3 0
0 3.2 0
0.171429 3.2 0
0.342857 3.2 0
0.514286 3.2 0
0.685714 3.2 0
0.857143 3.2 0
1.02857 3.2 0
1.2 3.2 0
1.37143 3.2 0
1.54286 3.2 0
1.71429 3.2 0
1.88571 3.2 0
2.05714 3.2 0
2.22857 3.2 0
2.4 3.2 0
2.57143 3.2 0
2.74286 3.2 0
2.91429 3.2 0
3.08571 3.2 0
3.25714 3.2 0
3.42857 3.2 0
3.6 3.2 0
3.77143 3.2 0
3.94286 3.2 0
4.11429 3.2 0
4.28571 3.2 0
4.45714 3.2 0
4.62857 3.2 0
4.8 3.2 0
4.97143 3.2 0
5.14286 3.2 0
5.31429 3.2 0
5.48571 3.2 0
5.65714 3.2 0
5.82857 3.2 0
6 3.2 0
0 3.4 0
0.171429 3.4 0
0.342857 3.4 0
0.514286 3.4 0
0.685714 3.4 0
0.857143 3.4 0
1.02857 3.4 0
1.2 3.4 0
1.37143 3.4 0
1.54286 3.4 0
1.71429 3.4 0
1.88571 3.4 0
2.05714 3.4 0
2.22857 3.4 0
2.4 3.4 0
2.57143 3.4 0
2.74286 3.4 0
2.91429 3.4 0
3.08571 3.4 0
3.25714 3.4 0
3.42857 3.4 0
3.6 3.4 0
3.77143 3.4 0
3.94286 3.4 0
4.11429 3.4 0
4.28571 3.4 0
4.45714 3.4 0
4.62857 3.4 0
4.8 3.4 0
4.97143 3.4 0
5.14286 3.4 0
5.31429 3.4 0
5.48571 3.4 0
5.65714 3.4 0
5.82857 3.4 0
6 3.4 0
0 3.6 0
0.171429 3.6 0
0.342857 3.6 0
0.514286 3.6 0
0.685714 3.6 0
0.857143 3.6 0
1.02857 3.6 0
1.2 3.6 0
1.37143 3.6 0
1.54286 3.6 0
1.71429 3.6 0
1.88571 3.6 0
2.05714 3.6 0
2.22857 3.6 0
2.4 3.6 0
2.57143 3.6 0
2.74286 3.6 0
2.91429 3.6 0
3.08571 3.6 0
3.25714 3.6 0
3.42857 3.6 0
3.6 3.6 0
3.77143 3.6 0
3.94286 3.6 0
4.11429 3.6 0
4.28571 3.6 0
4.45714 3.6 0
4.62857 3.6 0
4.8 3.6 0
4.97143 3.6 0
5.14286 3.6 0
5.31429 3.6 0
5.48571 3.6 0
5.65714 3.6 0
5.82857 3.6 0
6 3.6 0
0 3.8 0
0.171429 3.8 0
0.342857 3.8 0
0.514286 3.8 0
0.685714 3.8 0
0.857143 3.8 0
1.02857 3.8 0
1.2 3.8 0
1.37143 3.8 0
1.54286 3.8 0
1.71429 3.8 0
1.88571 3.8 0
2.05714 3.8 0
2.22857 3.8 0
2.4 3.8 0
2.57143 3.8 0
2.74286 3.8 0
2.91429 3.8 0
3.08571 3.8 0
3.25714 3.8 0
3.42857 3.8 0
3.6 3.8 0
3.77143 3.8 0
3.94286 3.8 0
4.11429 3.8 0
4.28571 3.8 0
4.45714 3.8 0
4.62857 3.8 0
4.8 3.8 0
4.97143 3.8 0
5.14286 3.8 0
5.31429 3.8 0
5.48571 3.8 0
5.65714 3.8 0
5.82857 3.8 0
6 3.8 0
0 4 0
0.171429 4 0
0.342857 4 0
0.514286 4 0
0.685714 4 0
0.857143 4 0
1.02857 4 0
1.2 4 0
1.37143 4 0
1.54286 4 0
1.71429 4 0
1.88571 4 0
2.05714 4 0
2.22857 4 0
2.4 4 0
2.57143 4 0
2.74286 4 0
2.91429 4 0
3.08571 4 0
3.25714 4 0
3.42857 4 0
3.6 4 0
3.77143 4 0
3.94286 4 0
4.11429 4 0
4.28571 4 0
4.45714 4 0
4.62857 4 0
4.8 4 0
4.97143 4 0
5.14286 4 0
5.31429 4 0
5.48571 4 0
5.65714 4 0
5.82857 4 0
6 4 0
0 4.2 0
0.171429 4.2 0
0.342857 4.2 0
0.514286 4.2 0
0.685714 4.2 0
0.857143 4.2 0
1.02857 4.2 0
1.2 4.2 0
1.37143 4.2 0
1.54286 4.2 0
1.71429 4.2 0
1.88571 4.2 0
2.05714 4.2 0
2.22857 4.2 0
2.4 4.2 0
2.57143 4.2 0
2.74286 4.2 0
2.91429 4.2 0
3.08571 4.2 0
3.25714 4.2 0
3.42857 4.2 0
3.6 4.2 0
3.77143 4.2 0
3.94286 4.2 0
4.11429 4.2 0
4.28571 4.2 0
4.45714 4.2 0
4.62857 4.2 0
4.8 4.2 0
4.97143 4.2 0
5.14286 4.2 0
5.31429 4.2 0
5.48571 4.2 0
5.65714 4.2 0
5.82857 4.2 0
6 4.2 0
0 4.4 0
0.171429 4.4 0
0.342857 4.4 0
0.514286 4.4 0
0.685714 4.4 0
0.857143 4.4 0
1.02857 4.4 0
1.2 4.4 0
1.37143 4.4 0
1.54286 4.4 0
1.71429 4.4 0
1.88571 4.4 0
2.05714 4.4 0
2.22857 4.4 0
2.4 4.4 0
2.57143 4.4 0
2.74286 4.4 0
2.91429 4.4 0
3.08571 4.4 0
3.25714 4.4 0
3.42857 4.4 0
3.6 4.4 0
3.77143 4.4 0
3.94286 4.4 0
4.11429 4.4 0
4.28571 4.4 0
4.45714 4.4 0
4.62857 4.4 0
4.8 4.4 0
4.97143 4.4 0
5.14286 4.4 0
5.31429 4.4 0
5.48571 4.4 0
5.65714 4.4 0
5.82857 4.4 0
6 4.4 0
0 4.6 0
0.171429 4.6 0
0.342857 4.6 0
0.514286 4.6 0
0.685714 4.6 0
0.857143 4.6 0
1.02857 4.6 0
1.2 4.6 0
1.37143 4.6 0
1.54286 4.6 0
1.71429 4.6 0
1.88571 4.6 0
2.05714 4.6 0
2.22857 4.6 0
2.4 4.6 0
2.57143 4.6 0
2.74286 4.6 0
2.91429 4.6 0
3.08571 4.6 0
3.25714 4.6 0
3.42857 4.6 0
3.6 4.6 0
3.77143 4.6 0
3.94286 4.6 0
4.11429 4.6 0
4.28571 4.6 0
4.45714 4.6 0
4.62857 4.6 0
4.8 4.6 0
4.97143 4.6 0
5.14286 4.6 0
5.31429 4.6 0
5.48571 4.6 0
5.65714 4.6 0
5.82857 4.6 0
6 4.6 0
0 4.8 0
0.171429 4.8 0
0.342857 4.8 0
0.514286 4.8 0
0.685714 4.8 0
0.857143 4.8 0
1.02857 4.8 0
1.2 4.8 0
1.37143 4.8 0
1.54286 4.8 0
1.71429 4.8 0
1.88571 4.8 0
2.05714 4.8 0
2.22857 4.8 0
2.4 4.8 0
2.57143 4.8 0
2.74286 4.8 0
2.91429 4.8 0
3.08571 4.8 0
3.25714 4.8 0
3.42857 4.8 0
3.6 4.8 0
3.77143 4.8 0
3.94286 4.8 0
4.11429 4.8 0
4.28571 4.8 0
4.45714 4.8 0
4.62857 4.8 0
4.8 4.8 0
4.97143 4.8 0
5.14286 4.8 0
5.31429 4.8 0
5.48571 4.8 0
5.65714 4.8 0
5.82857 4.8 0
6 4.8 0
0 5 0
0.171429 5 0
0.342857 5 0
0.514286 5 0
0.685714 5 0
0.857143 5 0
1.02857 5 0
1.2 5 0
1.37143 5 0
1.54286 5 0
1.71429 5 0
1.88571 5 0
2.05714 5 0
2.22857 5 0
2.4 5 0
2.57143 5 0
2.74286 5 0
2.91429 5 0
3.08571 5 0
3.25714 5 0
3.42857 5 0
3.6 5 0
3.77143 5 0
3.94286 5 0
4.11429 5 0
4.28571 5 0
4.45714 5 0
4.62857 5 0
4.8 5 0
4.97143 5 0
5.14286 5 0
5.31429 5 0
5.48571 5 0
5.65714 5 0
5.82857 5 0
6 5 0

CELL_DATA 875
SCALARS phi float
LOOKUP_TABLE default 
4.711
4.711
4.711
4.711
4.711
4.711
4.711
4.711
4.711
4.711
4.711
4.711
4.711
4.711
4.711
4.711
4.711
4.711
4.711
4.711
4.711
4.711
4.711
4.711
4.711
4.711
4.711
4.711
4.711
4.711
4.711
4.711
4.711
4.711
4.711
4.711
4.711
4.711
4.711
4.711
4.711
4.711
4.711
4.711
4.711
4.711
4.711
4.711
4.711
4.711
4.711
4.711
4.711
4.711
4.711
4.711
4.711
4.711
4.711
4.711
4.711
4.711
4.711
4.711
4.711
4.711
4.711
4.711
4.711
4.711
4.711
4.711
4.711
4.711
4.711
4.711
4.711
4.711
4.711
4.711
4.711
4.711
4.711
4.711
4.711
4.711
4.711
4.711
4.711
4.711
4.711
4.711
4.711
4.711
4.711
4.711
4.711
4.711
4.711
4.711
4.711
4.711
4.711
4.711
4.711
4.711
4.711
4.711
4.711
4.711
4.711
4.711
4.711
4.711
4.711
4.711
4.711
4.711
4.711
4.711
4.711
4.711
4.711
4.711
4.711
4.711
4.711
4.711
4.711
4.711
4.711
4.711
4.711
4.711
4.711
4.711
4.711
4.711
4.711
4.711
4.711
4.711
4.711
4.711
4.711
4.711
4.711
4.711
4.711
4.711
4.711
4.711
4.711
4.711
4.711
4.711
4.711
4.711
4.711
4.711
4.711
4.711
4.711
4.711
4.711
4.711
4.711
4.711
4.711
4.711
4.711
4.711
4.711
4.711
4.711
4.711
4.711
4.711
4.711
4.711
4.711
4.711
4.711
4.711
4.711
4.711
4.711
4.711
4.711
4.711
4.711
4.711
4.711
4.711
4.711
4.711
4.711
4.711
4.711
4.711
4.711
4.711
4.711
4.711
4.711
4.711
4.711
4.711
4.711
4.711
4.711
4.711
4.711
4.711
4.711
4.711
4.711
4.711
4.711
4.711
4.711
4.711
4.711
4.711
4.711
4.711
4.711
4.711
4.711
4.711
4.711
4.711
4.711
4.711
4.711
4.711
4.711
4.711
4.711
4.711
4.711
4.711
4.711
4.711
4.711
4.711
4.711
4.711
4.711
4.711
4.711
4.711
4.711
4.711
4.711
4.711
4.711
4.711
4.711
4.711
4.711
4.711
4.711
4.711
4.711
4.711
4.711
4.711
4.711
4.711
4.711
4.711
4.711
4.711
4.711
4.711
4.711
4.711
4.711
4.711
4.711
4.711
4.711
4.711
4.711
4.711
4.711
4.711
4.711
4.711
4.711
4.711
4.711
4.711
4.711
4.711
4.711
4.711
4.711
4.711
4.711
4.711
4.711
4.711
4.711
4.711
4.711
4.711
4.711
4.711
4.711
4.711
4.711
4.711
4.711
4.711
4.711
4.711
4.711
4.711
4.711
4.711
4.711
4.711
4.711
4.711
4.711
4.711
4.711
4.711
4.711
4.711
4.711
4.711
4.711
4.711
4.711
4.711
4.711
4.711
4.711
4.711
4.711
4.711
4.711
4.711
4.711
4.711
4.711
4.711
4.711
4.711
4.711
4.711
4.711
4.711
4.711
4.711
4.711
4.711
4.711
4.711
4.711
4.711
4.711
4.711
4.711
4.711
4.711
4.711
4.711
4.711
4.711
4.711
4.711
4.711
4.711
4.711
4.711
4.711
4.711
4.711
4.711
4.711
4.711
4.711
4.711
4.711
4.711
4.711
4.711
4.711
4.711
4.711
4.711
4.711
4.711
4.711
4.711
4.711
4.711
4.711
4.711
4.711
4.711
4.711
4.711
4.711
4.711
4.711
4.711
4.711
4.711
4.711
4.711
4.711
4.711
4.711
4.711
4.711
4.711
4.711
4.711
4.711
4.711
4.711
4.711
4.711
4.711
4.711
4.711
4.711
4.711
4.711
4.711
4.711
4.711
4.711
4.711
4.711
4.711
4.711
4.711
4.711
4.711
4.711
4.711
4.711
4.711
4.711
4.711
4.711
4.711
4.711
4.711
4.711
4.711
4.711
4.711
4.711
4.711
4.711
4.711
4.711
4.711
4.711
4.711
4.711
4.711
4.711
4.711
4.711
4.711
4.711
4.711
4.711
4.711
4.711
4.711
4.711
4.711
4.711
4.711
4.711
4.711
4.711
4.711
4.711
4.711
4.711
4.711
4.711
4.711
4.711
4.711
4.711
4.711
4.711
4.711
4.711
4.711
4.711
4.711
4.711
4.711
4.711
4.711
4.711
4.711
4.711
4.711
4.711
4.711
4.711
4.711
4.711
4.711
4.711
4.711
4.711
4.711
4.711
4.711
4.711
4.711
4.711
4.711
4.711
4.711
4.711
4.711
4.711
4.711
4.711
4.711
4.711
4.711
4.711
4.711
4.711
4.711
4.711
4.711
4.711
4.711
4.711
4.711
4.711
4.711
4.711
4.711
4.711
4.711
4.711
4.711
4.711
4.711
4.711
4.711
4.711
4.711
4.711
4.711
4.711
4.711
4.711
4.711
4.711
4.711
4.711
4.711
4.711
4.711
4.711
4.711
4.711
4.711
4.711
4.711
4.711
4.711
4.711
4.711
4.711
4.711
4.711
4.711
4.711
4.711
4.711
4.711
4.711
4.711
4.711
4.711
4.711
4.711
4.711
4.711
4.711
4.711
4.711
4.711
4.711
4.711
4.711
4.711
4.711
4.711
4.711
4.711
4.711
4.711
4.711
4.711
4.711
4.711
4.711
4.711
4.711
4.711
4.711
4.711
4.711
4.711
4.711
4.711
4.711
4.711
4.711
4.711
4.711
4.711
4.711
4.711
4.711
4.711
4.711
4.711
4.711
4.711
4.711
4.711
4.711
4.711
4.711
4.711
4.711
4.711
4.711
4.711
4.711
4.711
4.711
4.711
4.711
4.711
4.711
4.711
4.711
4.711
4.711
4.711
4.711
4.711
4.711
4.711
4.711
4.711
4.711
4.711
4.711
4.711
4.711
4.711
4.711
4.711
4.711
4.711
4.711
4.711
4.711
4.711
4.711
4.711
4.711
4.711
4.711
4.711
4.711
4.711
4.711
4.711
4.711
4.711
4.711
4.711
4.711
4.711
4.711
4.711
4.711
4.711
4.711
4.711
4.711
4.711
4.711
4.711
4.711
4.711
4.711
4.711
4.711
4.711
4.711
4.711
4.711
4.711
4.711
4.711
4.711
4.711
4.711
4.711
4.711
4.711
4.711
4.711
4.711
4.711
4.711
4.711
4.711
4.711
4.711
4.711
4.711
4.711
4.711
4.711
4.711
4.711
4.711
4.711
4.711
4.711
4.711
4.711
4.711
4.711
4.711
4.711
4.711
4.711
4.711
4.711
4.711
4.711
4.711
4.711
4.711
4.711
4.711
4.711
4.711
4.711
4.711
4.711
4.711
4.711
4.711
4.711
4.711
4.711
4.711
4.711
4.711
4.711
4.711
4.711
4.711
4.711
4.711
4.711
4.711
4.711
4.711
4.711
4.711
4.711
4.711
4.711
4.711
4.711
4.711
4.711
4.711
4.711
4.711
4.711
4.711
4.711
4.711
4.711
4.711
4.711
4.711
4.711
4.711
4.711
4.711
4.711
4.711
4.711
4.711
4.711
4.711
4.711
4.711
4.711
4.711
4.711
4.711
4.711
4.711
4.711
4.711
4.711
4.711
4.711
4.711
4.711
4.711
4.711
4.711
4.711
4.711
4.711
4.711
4.711
4.711
4.711
4.711
4.711
4.711
4.711
4.711
4.711
4.711
4.711
4.711
4.711
4.711
4.711
4.711
4.711
4.711
4.711
4.711
4.711
4.711
4.711
4.711
4.711
4.711
4.711
4.711
4.711
4.711
4.711
4.711
4.711
4.711
4.711

SCALARS p float
LOOKUP_TABLE default 
51.8304
51.8304
51.5618
51.4068
51.3134
51.3134
0
0
0
-173.068
-173.068
-171.432
-167.607
-160.542
-149.423
-134.905
-118.679
-102.533
-87.3939
-73.5968
-61.9685
-52.325
-44.3295
-37.6091
-31.8251
-26.702
-22.0304
-17.6599
-13.4859
-9.43782
-5.46974
-1.55304
2.32858
6.18356
10
51.8304
51.8304
51.5618
51.4068
51.3134
51.3134
0
0
0
-173.068
-173.068
-171.432
-167.607
-160.542
-149.423
-134.905
-118.679
-102.533
-87.3939
-73.5968
-61.9685
-52.325
-44.3295
-37.6091
-31.8251
-26.702
-22.0304
-17.6599
-13.4859
-9.43782
-5.46974
-1.55304
2.32858
6.18356
10
51.5073
51.5073
51.2545
51.1517
51.0928
51.0928
0
0
0
-176.946
-176.946
-175.859
-172.901
-166.411
-154.695
-139.046
-121.708
-104.636
-88.4393
-74.3228
-62.483
-52.716
-44.6509
-37.8891
-32.0761
-26.9279
-22.2317
-17.8361
-13.6365
-9.56315
-5.57031
-1.62914
2.27783
6.16161
10
50.4355
50.4355
50.204
50.167
50.159
50.159
0
0
0
-184.826
-184.826
-184.562
-182.721
-176.591
-163.31
-145.777
-126.471
-107.52
-90.3164
-75.5795
-63.3688
-53.3858
-45.1946
-38.3547
-32.4865
-27.2924
-22.5532
-18.1152
-13.874
-9.76006
-5.72798
-1.74867
2.19639
6.11997
10
48.0764
48.0764
47.8508
47.8524
47.8872
47.8872
0
0
0
-193.778
-193.778
-194.532
-194.001
-187.397
-172.196
-151.998
-130.43
-109.968
-91.9038
-76.681
-64.191
-54.0416
-45.7456
-38.8342
-32.9111
-27.6696
-22.8859
-18.4045
-14.1206
-9.96485
-5.89222
-1.8734
2.11059
6.07325
10
43.9444
43.9444
43.6304
43.4904
43.4104
43.4104
0
0
0
-200.452
-200.452
-202.56
-202.749
-192.667
-174.758
-152.934
-130.626
-109.98
-91.9973
-76.9161
-64.5355
-54.4428
-46.1613
-39.2378
-33.2884
-28.0132
-23.1923
-18.6723
-14.3494
-10.1552
-6.04496
-1.98947
2.03038
6.02832
10
37.8138
37.8138
37.1531
36.2739
35.2997
35.2997
0
0
0
-202.895
-202.895
-206.923
-201.177
-186.626
-167.623
-146.621
-125.881
-106.839
-90.1711
-76.0252
-64.2397
-54.4876
-46.3789
-39.5278
-33.5953
-28.3088
-23.4626
-18.9111
-14.5545
-10.3262
-6.18233
-2.09398
1.95784
5.9869
10
30.0258
30.0258
28.5674
25.5091
20.1125
20.1125
-59.2033
-86.1762
-112.528
-206.67
-206.67
-192.914
-182.114
-168.43
-152.358
-135.076
-117.853
-101.658
-87.0754
-74.3424
-63.4514
-54.2282
-46.4086
-39.6998
-33.8249
-28.5502
-23.6923
-19.1179
-14.7337
-10.4763
-6.30311
-2.18606
1.89365
5.94975
10
21.8063
21.8063
19.3921
13.0986
-2.23617
-44.0343
-59.2033
-86.1762
-112.528
-181.894
-173.098
-166.293
-158.788
-149.092
-137.18
-123.806
-109.922
-96.3683
-83.7453
-72.3884
-62.4135
-53.7667
-46.2871
-39.7629
-33.9765
-28.7344
-23.8785
-19.2906
-14.8855
-10.6042
-6.40644
-2.26502
1.83842
5.9175
10
14.8818
14.8818
12.403
6.19251
-6.54824
-29.5706
-59.2033
-86.1762
-112.528
-130.472
-138.757
-140.977
-138.936
-133.272
-124.812
-114.463
-103.148
-91.6734
-80.6522
-70.4722
-61.3204
-53.2193
-46.0796
-39.7517
-34.0674
-28.8696
-24.0247
-19.43
-15.0097
-10.7094
-6.49164
-2.33019
1.79278
5.89076
10
10.0638
10.0638
8.03884
3.14449
-6.07554
-21.1631
-41.7061
-63.9377
-85.5521
-103.805
-116.151
-122.688
-124.193
-121.507
-115.591
-107.431
-97.9683
-88.0118
-78.1869
-68.9098
-60.4074
-52.7485
-45.8912
-39.7298
-34.1337
-28.9749
-24.1403
-19.5406
-15.1077
-10.7921
-6.55817
-2.38084
1.75743
5.8701
10
7.39469
7.39469
5.84819
2.15667
-4.66182
-15.8433
-31.9039
-51.1493
-71.1432
-89.2345
-103.04
-111.631
-115.136
-114.252
-109.914
-103.12
-94.8114
-85.8014
-76.7231
-68.0087
-59.9092
-52.5212
-45.8327
-39.7662
-34.2157
-29.0721
-24.2359
-19.6264
-15.1807
-10.8517
-6.60499
-2.41587
1.73325
5.85612
10
6.63506
6.63506
5.40193
2.43882
-3.14018
-12.7031
-27.2455
-45.6809
-65.549
-83.9776
-98.4772
-107.853
-112.077
-111.844
-108.105
-101.843
-93.9838
-85.331
-76.5167
-67.9811
-59.9889
-52.6538
-45.9809
-39.9075
-34.3387
-29.1731
-24.3156
-19.6876
-15.2268
-10.8858
-6.62984
-2.43346
1.72151
5.84943
10
7.39469
7.39469
5.84819
2.15667
-4.66182
-15.8433
-31.9039
-51.1493
-71.1432
-89.2345
-103.04
-111.631
-115.136
-114.252
-109.914
-103.12
-94.8114
-85.8014
-76.7231
-68.0087
-59.9092
-52.5212
-45.8327
-39.7662
-34.2157
-29.0721
-24.2359
-19.6264
-15.1807
-10.8517
-6.60499
-2.41587
1.73325
5.85612
10
10.0638
10.0638
8.03884
3.14449
-6.07554
-21.1631
-41.7061
-63.9377
-85.5521
-103.805
-116.151
-122.688
-124.193
-121.507
-115.591
-107.431
-97.9683
-88.0118
-78.1869
-68.9098
-60.4074
-52.7485
-45.8912
-39.7298
-34.1337
-28.9749
-24.1403
-19.5406
-15.1077
-10.7921
-6.55817
-2.38084
1.75743
5.8701
10
14.8818
14.8818
12.403
6.19251
-6.54824
-29.5706
-59.2033
-86.1762
-112.528
-130.472
-138.757
-140.977
-138.936
-133.272
-124.812
-114.463
-103.148
-91.6734
-80.6522
-70.4722
-61.3204
-53.2193
-46.0796
-39.7517
-34.0674
-28.8696
-24.0247
-19.43
-15.0097
-10.7094
-6.49164
-2.33019
1.79278
5.89076
10
21.8063
21.8063
19.3921
13.0986
-2.23618
-44.0343
-59.2033
-86.1762
-112.528
-181.894
-173.098
-166.293
-158.788
-149.092
-137.18
-123.806
-109.922
-96.3683
-83.7453
-72.3884
-62.4135
-53.7667
-46.2871
-39.7629
-33.9765
-28.7344
-23.8785
-19.2906
-14.8855
-10.6042
-6.40644
-2.26502
1.83842
5.9175
10
30.0258
30.0258
28.5674
25.5091
20.1125
20.1125
-59.2033
-86.1762
-112.528
-206.67
-206.67
-192.914
-182.114
-168.43
-152.358
-135.076
-117.853
-101.658
-87.0754
-74.3424
-63.4514
-54.2282
-46.4086
-39.6998
-33.8249
-28.5502
-23.6923
-19.1179
-14.7337
-10.4763
-6.30311
-2.18606
1.89365
5.94975
10
37.8138
37.8138
37.1531
36.2739
35.2997
35.2997
0
0
0
-202.895
-202.895
-206.923
-201.177
-186.626
-167.623
-146.621
-125.881
-106.839
-90.1711
-76.0252
-64.2397
-54.4876
-46.3789
-39.5278
-33.5953
-28.3088
-23.4626
-18.9111
-14.5545
-10.3262
-6.18233
-2.09398
1.95784
5.9869
10
43.9444
43.9444
43.6304
43.4904
43.4104
43.4104
0
0
0
-200.452
-200.452
-202.56
-202.749
-192.667
-174.758
-152.934
-130.626
-109.98
-91.9973
-76.9161
-64.5355
-54.4428
-46.1613
-39.2378
-33.2884
-28.0132
-23.1923
-18.6723
-14.3494
-10.1552
-6.04496
-1.98947
2.03038
6.02832
10
48.0764
48.0764
47.8508
47.8524
47.8872
47.8872
0
0
0
-193.778
-193.778
-194.532
-194.001
-187.397
-172.196
-151.998
-130.43
-109.968
-91.9038
-76.681
-64.191
-54.0416
-45.7456
-38.8342
-32.9111
-27.6696
-22.8859
-18.4045
-14.1206
-9.96485
-5.89222
-1.8734
2.11059
6.07325
10
50.4355
50.4355
50.204
50.167
50.159
50.159
0
0
0
-184.826
-184.826
-184.562
-182.721
-176.591
-163.31
-145.777
-126.471
-107.52
-90.3164
-75.5795
-63.3688
-53.3858
-45.1946
-38.3547
-32.4865
-27.2924
-22.5532
-18.1152
-13.874
-9.76006
-5.72798
-1.74867
2.1964
6.11997
10
51.5073
51.5073
51.2545
51.1517
51.0928
51.0928
0
0
0
-176.946
-176.946
-175.859
-172.901
-166.411
-154.695
-139.046
-121.708
-104.636
-88.4393
-74.3228
-62.483
-52.716
-44.6509
-37.8891
-32.0761
-26.9279
-22.2317
-17.8361
-13.6365
-9.56315
-5.57031
-1.62914
2.27783
6.16161
10
51.8304
51.8304
51.5618
51.4068
51.3134
51.3134
0
0
0
-173.068
-173.068
-171.432
-167.607
-160.542
-149.423
-134.905
-118.679
-102.533
-87.3939
-73.5968
-61.9685
-52.325
-44.3295
-37.6091
-31.8251
-26.702
-22.0304
-17.6599
-13.4859
-9.43782
-5.46974
-1.55304
2.32858
6.18356
10
51.8304
51.8304
51.5618
51.4068
51.3134
51.3134
0
0
0
-173.068
-173.068
-171.432
-167.607
-160.542
-149.423
-134.905
-118.679
-102.533
-87.3939
-73.5968
-61.9685
-52.325
-44.3295
-37.6091
-31.8251
-26.702
-22.0304
-17.6599
-13.4859
-9.43782
-5.46974
-1.55304
2.32858
6.18356
10

SCALARS  u float
LOOKUP_TABLE default 
0.00966667
0.00657186
0.0072097
0.0097937
0.0193029
0.0524009
0
0
0
0.0822987
0.0576448
0.00221738
-0.0199155
-0.0232428
-0.0233547
-0.020409
-0.0150399
-0.00821457
-0.000683485
0.00652115
0.0130817
0.0188077
0.0236336
0.027587
0.0307515
0.0332388
0.0351655
0.0366421
0.0377655
0.0386166
0.0392611
0.0397504
0.0401252
0.040408
0.040408
0.0358437
0.0334454
0.0318883
0.0330345
0.0476978
0.110276
0
0
0
0.167083
0.109836
-0.0196445
-0.0779178
-0.0900749
-0.0888615
-0.075048
-0.0517734
-0.0229529
0.00762035
0.0369725
0.0637512
0.0871542
0.106927
0.123181
0.136251
0.146579
0.154629
0.160842
0.165604
0.16924
0.172013
0.174134
0.175769
0.177029
0.177259
0.0585469
0.0551373
0.0503513
0.0469935
0.0573337
0.116227
0
0
0
0.173413
0.120571
-0.010731
-0.0750372
-0.0845486
-0.077923
-0.0584245
-0.030641
0.00134471
0.0335225
0.0643855
0.0927901
0.117963
0.13964
0.157882
0.172954
0.185225
0.195099
0.202972
0.209203
0.214108
0.217955
0.220965
0.223319
0.225142
0.225535
0.0789495
0.0748486
0.0677733
0.0602163
0.0651625
0.118551
0
0
0
0.179927
0.135752
0.0151164
-0.056644
-0.0598419
-0.0463717
-0.0230647
0.00493061
0.0343282
0.063243
0.0907582
0.115923
0.138211
0.157432
0.17365
0.187094
0.198088
0.206987
0.214132
0.219836
0.224369
0.227957
0.23079
0.233019
0.234753
0.235139
0.0971856
0.0927625
0.084486
0.0739879
0.0738148
0.120327
0
0
0
0.187926
0.157915
0.0635521
-0.00731717
-0.00238289
0.0161556
0.0386028
0.0623589
0.0855598
0.107741
0.128409
0.147202
0.163881
0.178338
0.190594
0.200788
0.20914
0.215907
0.221349
0.225703
0.229174
0.231933
0.23412
0.235846
0.237192
0.237494
0.113292
0.109124
0.101016
0.0892502
0.0844041
0.121854
0
0
0
0.197378
0.187421
0.133603
0.0892316
0.0942648
0.110716
0.12737
0.142383
0.155675
0.167539
0.17826
0.188011
0.196833
0.204685
0.211521
0.217336
0.222183
0.226162
0.229393
0.232001
0.234098
0.235779
0.237121
0.238187
0.239021
0.239207
0.127307
0.124406
0.118847
0.10903
0.100507
0.129863
0
0
0
0.20409
0.229883
0.228337
0.225177
0.226929
0.232425
0.236314
0.237809
0.23764
0.236665
0.235564
0.234775
0.234484
0.234676
0.235224
0.23597
0.236784
0.237581
0.238313
0.238963
0.239527
0.240008
0.24041
0.240742
0.241006
0.241064
0.139264
0.13897
0.139668
0.139027
0.138093
0.225004
0.226521
0.254947
0.320769
0.458933
0.445201
0.423349
0.402143
0.382164
0.364294
0.347717
0.332027
0.317222
0.303513
0.29119
0.280522
0.271646
0.264524
0.258974
0.254739
0.251548
0.249163
0.247386
0.246066
0.245084
0.244352
0.243804
0.243391
0.243076
0.243003
0.149146
0.152099
0.161527
0.1775
0.20678
0.267781
0.310985
0.350646
0.425931
0.484459
0.478305
0.470752
0.460521
0.446853
0.430355
0.411879
0.392253
0.37224
0.352577
0.33398
0.317077
0.302296
0.289813
0.279565
0.271332
0.26482
0.25972
0.255754
0.252679
0.2503
0.248459
0.247032
0.245925
0.245066
0.24487
0.15685
0.161813
0.176706
0.202482
0.243488
0.298949
0.347375
0.390688
0.439836
0.476365
0.487947
0.491418
0.48827
0.479364
0.46567
0.448229
0.428118
0.406427
0.384241
0.362595
0.342384
0.32425
0.308532
0.295286
0.284365
0.275506
0.268403
0.262756
0.258292
0.254776
0.252013
0.249844
0.248144
0.246816
0.246515
0.162324
0.16766
0.183607
0.211593
0.253189
0.306062
0.35807
0.404379
0.445442
0.476521
0.494951
0.50359
0.504062
0.497466
0.485058
0.468076
0.44777
0.425403
0.40221
0.379335
0.357737
0.338104
0.320818
0.305989
0.293529
0.283229
0.27482
0.268022
0.26257
0.258222
0.25477
0.252038
0.249882
0.248192
0.247808
0.165577
0.170386
0.18481
0.210752
0.249137
0.297993
0.350047
0.398864
0.440901
0.473267
0.494737
0.506063
0.508486
0.503291
0.491839
0.475481
0.455562
0.433412
0.410304
0.387382
0.365582
0.345574
0.327747
0.312247
0.299039
0.28797
0.27882
0.271342
0.265289
0.260424
0.256538
0.253449
0.251002
0.249079
0.248642
0.166647
0.170972
0.183991
0.207859
0.24378
0.290382
0.341984
0.391915
0.435365
0.469215
0.492207
0.504747
0.508053
0.503579
0.492728
0.47687
0.45736
0.435531
0.412654
0.389868
0.368104
0.348034
0.330061
0.314353
0.300901
0.289577
0.280179
0.272472
0.266216
0.261177
0.257144
0.253934
0.251387
0.249384
0.24893
0.165577
0.170386
0.18481
0.210752
0.249137
0.297993
0.350047
0.398864
0.440901
0.473267
0.494737
0.506063
0.508486
0.503291
0.491839
0.475481
0.455562
0.433412
0.410304
0.387382
0.365582
0.345574
0.327747
0.312247
0.299039
0.28797
0.27882
0.271342
0.265289
0.260424
0.256538
0.253449
0.251002
0.249079
0.248642
0.162324
0.16766
0.183607
0.211593
0.253189
0.306062
0.35807
0.404379
0.445442
0.476521
0.494951
0.50359
0.504062
0.497466
0.485058
0.468076
0.44777
0.425403
0.40221
0.379335
0.357737
0.338104
0.320818
0.305989
0.293529
0.283229
0.27482
0.268022
0.26257
0.258222
0.25477
0.252038
0.249882
0.248192
0.247808
0.15685
0.161813
0.176706
0.202482
0.243488
0.298949
0.347375
0.390688
0.439836
0.476365
0.487947
0.491418
0.48827
0.479364
0.46567
0.448229
0.428118
0.406427
0.384241
0.362595
0.342384
0.32425
0.308532
0.295286
0.284365
0.275506
0.268403
0.262756
0.258292
0.254776
0.252013
0.249844
0.248144
0.246816
0.246515
0.149146
0.152099
0.161527
0.1775
0.20678
0.267781
0.310985
0.350646
0.425931
0.484459
0.478305
0.470752
0.460521
0.446853
0.430355
0.411879
0.392253
0.37224
0.352577
0.33398
0.317077
0.302296
0.289813
0.279565
0.271332
0.26482
0.25972
0.255754
0.252679
0.2503
0.248459
0.247032
0.245925
0.245066