# vtk DataFile Version 3.0
vtk output267
ASCII
DATASET STRUCTURED_GRID
DIMENSIONS 36 26 1
POINTS 936 float
0 0 0
0.171429 0 0
0.342857 0 0
0.514286 0 0
0.685714 0 0
0.857143 0 0
1.02857 0 0
1.2 0 0
1.37143 0 0
1.54286 0 0
1.71429 0 0
1.88571 0 0
2.05714 0 0
2.22857 0 0
2.4 0 0
2.57143 0 0
2.74286 0 0
2.91429 0 0
3.08571 0 0
3.25714 0 0
3.42857 0 0
3.6 0 0
3.77143 0 0
3.94286 0 0
4.11429 0 0
4.28571 0 0
4.45714 0 0
4.62857 0 0
4.8 0 0
4.97143 0 0
5.14286 0 0
5.31429 0 0
5.48571 0 0
5.65714 0 0
5.82857 0 0
6 0 0
0 0.2 0
0.171429 0.2 0
0.342857 0.2 0
0.514286 0.2 0
0.685714 0.2 0
0.857143 0.2 0
1.02857 0.2 0
1.2 0.2 0
1.37143 0.2 0
1.54286 0.2 0
1.71429 0.2 0
1.88571 0.2 0
2.05714 0.2 0
2.22857 0.2 0
2.4 0.2 0
2.57143 0.2 0
2.74286 0.2 0
2.91429 0.2 0
3.08571 0.2 0
3.25714 0.2 0
3.42857 0.2 0
3.6 0.2 0
3.77143 0.2 0
3.94286 0.2 0
4.11429 0.2 0
4.28571 0.2 0
4.45714 0.2 0
4.62857 0.2 0
4.8 0.2 0
4.97143 0.2 0
5.14286 0.2 0
5.31429 0.2 0
5.48571 0.2 0
5.65714 0.2 0
5.82857 0.2 0
6 0.2 0
0 0.4 0
0.171429 0.4 0
0.342857 0.4 0
0.514286 0.4 0
0.685714 0.4 0
0.857143 0.4 0
1.02857 0.4 0
1.2 0.4 0
1.37143 0.4 0
1.54286 0.4 0
1.71429 0.4 0
1.88571 0.4 0
2.05714 0.4 0
2.22857 0.4 0
2.4 0.4 0
2.57143 0.4 0
2.74286 0.4 0
2.91429 0.4 0
3.08571 0.4 0
3.25714 0.4 0
3.42857 0.4 0
3.6 0.4 0
3.77143 0.4 0
3.94286 0.4 0
4.11429 0.4 0
4.28571 0.4 0
4.45714 0.4 0
4.62857 0.4 0
4.8 0.4 0
4.97143 0.4 0
5.14286 0.4 0
5.31429 0.4 0
5.48571 0.4 0
5.65714 0.4 0
5.82857 0.4 0
6 0.4 0
0 0.6 0
0.171429 0.6 0
0.342857 0.6 0
0.514286 0.6 0
0.685714 0.6 0
0.857143 0.6 0
1.02857 0.6 0
1.2 0.6 0
1.37143 0.6 0
1.54286 0.6 0
1.71429 0.6 0
1.88571 0.6 0
2.05714 0.6 0
2.22857 0.6 0
2.4 0.6 0
2.57143 0.6 0
2.74286 0.6 0
2.91429 0.6 0
3.08571 0.6 0
3.25714 0.6 0
3.42857 0.6 0
3.6 0.6 0
3.77143 0.6 0
3.94286 0.6 0
4.11429 0.6 0
4.28571 0.6 0
4.45714 0.6 0
4.62857 0.6 0
4.8 0.6 0
4.97143 0.6 0
5.14286 0.6 0
5.31429 0.6 0
5.48571 0.6 0
5.65714 0.6 0
5.82857 0.6 0
6 0.6 0
0 0.8 0
0.171429 0.8 0
0.342857 0.8 0
0.514286 0.8 0
0.685714 0.8 0
0.857143 0.8 0
1.02857 0.8 0
1.2 0.8 0
1.37143 0.8 0
1.54286 0.8 0
1.71429 0.8 0
1.88571 0.8 0
2.05714 0.8 0
2.22857 0.8 0
2.4 0.8 0
2.57143 0.8 0
2.74286 0.8 0
2.91429 0.8 0
3.08571 0.8 0
3.25714 0.8 0
3.42857 0.8 0
3.6 0.8 0
3.77143 0.8 0
3.94286 0.8 0
4.11429 0.8 0
4.28571 0.8 0
4.45714 0.8 0
4.62857 0.8 0
4.8 0.8 0
4.97143 0.8 0
5.14286 0.8 0
5.31429 0.8 0
5.48571 0.8 0
5.65714 0.8 0
5.82857 0.8 0
6 0.8 0
0 1 0
0.171429 1 0
0.342857 1 0
0.514286 1 0
0.685714 1 0
0.857143 1 0
1.02857 1 0
1.2 1 0
1.37143 1 0
1.54286 1 0
1.71429 1 0
1.88571 1 0
2.05714 1 0
2.22857 1 0
2.4 1 0
2.57143 1 0
2.74286 1 0
2.91429 1 0
3.08571 1 0
3.25714 1 0
3.42857 1 0
3.6 1 0
3.77143 1 0
3.94286 1 0
4.11429 1 0
4.28571 1 0
4.45714 1 0
4.62857 1 0
4.8 1 0
4.97143 1 0
5.14286 1 0
5.31429 1 0
5.48571 1 0
5.65714 1 0
5.82857 1 0
6 1 0
0 1.2 0
0.171429 1.2 0
0.342857 1.2 0
0.514286 1.2 0
0.685714 1.2 0
0.857143 1.2 0
1.02857 1.2 0
1.2 1.2 0
1.37143 1.2 0
1.54286 1.2 0
1.71429 1.2 0
1.88571 1.2 0
2.05714 1.2 0
2.22857 1.2 0
2.4 1.2 0
2.57143 1.2 0
2.74286 1.2 0
2.91429 1.2 0
3.08571 1.2 0
3.25714 1.2 0
3.42857 1.2 0
3.6 1.2 0
3.77143 1.2 0
3.94286 1.2 0
4.11429 1.2 0
4.28571 1.2 0
4.45714 1.2 0
4.62857 1.2 0
4.8 1.2 0
4.97143 1.2 0
5.14286 1.2 0
5.31429 1.2 0
5.48571 1.2 0
5.65714 1.2 0
5.82857 1.2 0
6 1.2 0
0 1.4 0
0.171429 1.4 0
0.342857 1.4 0
0.514286 1.4 0
0.685714 1.4 0
0.857143 1.4 0
1.02857 1.4 0
1.2 1.4 0
1.37143 1.4 0
1.54286 1.4 0
1.71429 1.4 0
1.88571 1.4 0
2.05714 1.4 0
2.22857 1.4 0
2.4 1.4 0
2.57143 1.4 0
2.74286 1.4 0
2.91429 1.4 0
3.08571 1.4 0
3.25714 1.4 0
3.42857 1.4 0
3.6 1.4 0
3.77143 1.4 0
3.94286 1.4 0
4.11429 1.4 0
4.28571 1.4 0
4.45714 1.4 0
4.62857 1.4 0
4.8 1.4 0
4.97143 1.4 0
5.14286 1.4 0
5.31429 1.4 0
5.48571 1.4 0
5.65714 1.4 0
5.82857 1.4 0
6 1.4 0
0 1.6 0
0.171429 1.6 0
0.342857 1.6 0
0.514286 1.6 0
0.685714 1.6 0
0.857143 1.6 0
1.02857 1.6 0
1.2 1.6 0
1.37143 1.6 0
1.54286 1.6 0
1.71429 1.6 0
1.88571 1.6 0
2.05714 1.6 0
2.22857 1.6 0
2.4 1.6 0
2.57143 1.6 0
2.74286 1.6 0
2.91429 1.6 0
3.08571 1.6 0
3.25714 1.6 0
3.42857 1.6 0
3.6 1.6 0
3.77143 1.6 0
3.94286 1.6 0
4.11429 1.6 0
4.28571 1.6 0
4.45714 1.6 0
4.62857 1.6 0
4.8 1.6 0
4.97143 1.6 0
5.14286 1.6 0
5.31429 1.6 0
5.48571 1.6 0
5.65714 1.6 0
5.82857 1.6 0
6 1.6 0
0 1.8 0
0.171429 1.8 0
0.342857 1.8 0
0.514286 1.8 0
0.685714 1.8 0
0.857143 1.8 0
1.02857 1.8 0
1.2 1.8 0
1.37143 1.8 0
1.54286 1.8 0
1.71429 1.8 0
1.88571 1.8 0
2.05714 1.8 0
2.22857 1.8 0
2.4 1.8 0
2.57143 1.8 0
2.74286 1.8 0
2.91429 1.8 0
3.08571 1.8 0
3.25714 1.8 0
3.42857 1.8 0
3.6 1.8 0
3.77143 1.8 0
3.94286 1.8 0
4.11429 1.8 0
4.28571 1.8 0
4.45714 1.8 0
4.62857 1.8 0
4.8 1.8 0
4.97143 1.8 0
5.14286 1.8 0
5.31429 1.8 0
5.48571 1.8 0
5.65714 1.8 0
5.82857 1.8 0
6 1.8 0
0 2 0
0.171429 2 0
0.342857 2 0
0.514286 2 0
0.685714 2 0
0.857143 2 0
1.02857 2 0
1.2 2 0
1.37143 2 0
1.54286 2 0
1.71429 2 0
1.88571 2 0
2.05714 2 0
2.22857 2 0
2.4 2 0
2.57143 2 0
2.74286 2 0
2.91429 2 0
3.08571 2 0
3.25714 2 0
3.42857 2 0
3.6 2 0
3.77143 2 0
3.94286 2 0
4.11429 2 0
4.28571 2 0
4.45714 2 0
4.62857 2 0
4.8 2 0
4.97143 2 0
5.14286 2 0
5.31429 2 0
5.48571 2 0
5.65714 2 0
5.82857 2 0
6 2 0
0 2.2 0
0.171429 2.2 0
0.342857 2.2 0
0.514286 2.2 0
0.685714 2.2 0
0.857143 2.2 0
1.02857 2.2 0
1.2 2.2 0
1.37143 2.2 0
1.54286 2.2 0
1.71429 2.2 0
1.88571 2.2 0
2.05714 2.2 0
2.22857 2.2 0
2.4 2.2 0
2.57143 2.2 0
2.74286 2.2 0
2.91429 2.2 0
3.08571 2.2 0
3.25714 2.2 0
3.42857 2.2 0
3.6 2.2 0
3.77143 2.2 0
3.94286 2.2 0
4.11429 2.2 0
4.28571 2.2 0
4.45714 2.2 0
4.62857 2.2 0
4.8 2.2 0
4.97143 2.2 0
5.14286 2.2 0
5.31429 2.2 0
5.48571 2.2 0
5.65714 2.2 0
5.82857 2.2 0
6 2.2 0
0 2.4 0
0.171429 2.4 0
0.342857 2.4 0
0.514286 2.4 0
0.685714 2.4 0
0.857143 2.4 0
1.02857 2.4 0
1.2 2.4 0
1.37143 2.4 0
1.54286 2.4 0
1.71429 2.4 0
1.88571 2.4 0
2.05714 2.4 0
2.22857 2.4 0
2.4 2.4 0
2.57143 2.4 0
2.74286 2.4 0
2.91429 2.4 0
3.08571 2.4 0
3.25714 2.4 0
3.42857 2.4 0
3.6 2.4 0
3.77143 2.4 0
3.94286 2.4 0
4.11429 2.4 0
4.28571 2.4 0
4.45714 2.4 0
4.62857 2.4 0
4.8 2.4 0
4.97143 2.4 0
5.14286 2.4 0
5.31429 2.4 0
5.48571 2.4 0
5.65714 2.4 0
5.82857 2.4 0
6 2.4 0
0 2.6 0
0.171429 2.6 0
0.342857 2.6 0
0.514286 2.6 0
0.685714 2.6 0
0.857143 2.6 0
1.02857 2.6 0
1.2 2.6 0
1.37143 2.6 0
1.54286 2.6 0
1.71429 2.6 0
1.88571 2.6 0
2.05714 2.6 0
2.22857 2.6 0
2.4 2.6 0
2.57143 2.6 0
2.74286 2.6 0
2.91429 2.6 0
3.08571 2.6 0
3.25714 2.6 0
3.42857 2.6 0
3.6 2.6 0
3.77143 2.6 0
3.94286 2.6 0
4.11429 2.6 0
4.28571 2.6 0
4.45714 2.6 0
4.62857 2.6 0
4.8 2.6 0
4.97143 2.6 0
5.14286 2.6 0
5.31429 2.6 0
5.48571 2.6 0
5.65714 2.6 0
5.82857 2.6 0
6 2.6 0
0 2.8 0
0.171429 2.8 0
0.342857 2.8 0
0.514286 2.8 0
0.685714 2.8 0
0.857143 2.8 0
1.02857 2.8 0
1.2 2.8 0
1.37143 2.8 0
1.54286 2.8 0
1.71429 2.8 0
1.88571 2.8 0
2.05714 2.8 0
2.22857 2.8 0
2.4 2.8 0
2.57143 2.8 0
2.74286 2.8 0
2.91429 2.8 0
3.08571 2.8 0
3.25714 2.8 0
3.42857 2.8 0
3.6 2.8 0
3.77143 2.8 0
3.94286 2.8 0
4.11429 2.8 0
4.28571 2.8 0
4.45714 2.8 0
4.62857 2.8 0
4.8 2.8 0
4.97143 2.8 0
5.14286 2.8 0
5.31429 2.8 0
5.48571 2.8 0
5.65714 2.8 0
5.82857 2.8 0
6 2.8 0
0 3 0
0.171429 3 0
0.342857 3 0
0.514286 3 0
0.685714 3 0
0.857143 3 0
1.02857 3 0
1.2 3 0
1.37143 3 0
1.54286 3 0
1.71429 3 0
1.88571 3 0
2.05714 3 0
2.22857 3 0
2.4 3 0
2.57143 3 0
2.74286 3 0
2.91429 3 0
3.08571 3 0
3.25714 3 0
3.42857 3 0
3.6 3 0
3.77143 3 0
3.94286 3 0
4.11429 3 0
4.28571 3 0
4.45714 3 0
4.62857 3 0
4.8 3 0
4.97143 3 0
5.14286 3 0
5.31429 3 0
5.48571 3 0
5.65714 3 0
5.82857 3 0
6 3 0
0 3.2 0
0.171429 3.2 0
0.342857 3.2 0
0.514286 3.2 0
0.685714 3.2 0
0.857143 3.2 0
1.02857 3.2 0
1.2 3.2 0
1.37143 3.2 0
1.54286 3.2 0
1.71429 3.2 0
1.88571 3.2 0
2.05714 3.2 0
2.22857 3.2 0
2.4 3.2 0
2.57143 3.2 0
2.74286 3.2 0
2.91429 3.2 0
3.08571 3.2 0
3.25714 3.2 0
3.42857 3.2 0
3.6 3.2 0
3.77143 3.2 0
3.94286 3.2 0
4.11429 3.2 0
4.28571 3.2 0
4.45714 3.2 0
4.62857 3.2 0
4.8 3.2 0
4.97143 3.2 0
5.14286 3.2 0
5.31429 3.2 0
5.48571 3.2 0
5.65714 3.2 0
5.82857 3.2 0
6 3.2 0
0 3.4 0
0.171429 3.4 0
0.342857 3.4 0
0.514286 3.4 0
0.685714 3.4 0
0.857143 3.4 0
1.02857 3.4 0
1.2 3.4 0
1.37143 3.4 0
1.54286 3.4 0
1.71429 3.4 0
1.88571 3.4 0
2.05714 3.4 0
2.22857 3.4 0
2.4 3.4 0
2.57143 3.4 0
2.74286 3.4 0
2.91429 3.4 0
3.08571 3.4 0
3.25714 3.4 0
3.42857 3.4 0
3.6 3.4 0
3.77143 3.4 0
3.94286 3.4 0
4.11429 3.4 0
4.28571 3.4 0
4.45714 3.4 0
4.62857 3.4 0
4.8 3.4 0
4.97143 3.4 0
5.14286 3.4 0
5.31429 3.4 0
5.48571 3.4 0
5.65714 3.4 0
5.82857 3.4 0
6 3.4 0
0 3.6 0
0.171429 3.6 0
0.342857 3.6 0
0.514286 3.6 0
0.685714 3.6 0
0.857143 3.6 0
1.02857 3.6 0
1.2 3.6 0
1.37143 3.6 0
1.54286 3.6 0
1.71429 3.6 0
1.88571 3.6 0
2.05714 3.6 0
2.22857 3.6 0
2.4 3.6 0
2.57143 3.6 0
2.74286 3.6 0
2.91429 3.6 0
3.08571 3.6 0
3.25714 3.6 0
3.42857 3.6 0
3.6 3.6 0
3.77143 3.6 0
3.94286 3.6 0
4.11429 3.6 0
4.28571 3.6 0
4.45714 3.6 0
4.62857 3.6 0
4.8 3.6 0
4.97143 3.6 0
5.14286 3.6 0
5.31429 3.6 0
5.48571 3.6 0
5.65714 3.6 0
5.82857 3.6 0
6 3.6 0
0 3.8 0
0.171429 3.8 0
0.342857 3.8 0
0.514286 3.8 0
0.685714 3.8 0
0.857143 3.8 0
1.02857 3.8 0
1.2 3.8 0
1.37143 3.8 0
1.54286 3.8 0
1.71429 3.8 0
1.88571 3.8 0
2.05714 3.8 0
2.22857 3.8 0
2.4 3.8 0
2.57143 3.8 0
2.74286 3.8 0
2.91429 3.8 0
3.08571 3.8 0
3.25714 3.8 0
3.42857 3.8 0
3.6 3.8 0
3.77143 3.8 0
3.94286 3.8 0
4.11429 3.8 0
4.28571 3.8 0
4.45714 3.8 0
4.62857 3.8 0
4.8 3.8 0
4.97143 3.8 0
5.14286 3.8 0
5.31429 3.8 0
5.48571 3.8 0
5.65714 3.8 0
5.82857 3.8 0
6 3.8 0
0 4 0
0.171429 4 0
0.342857 4 0
0.514286 4 0
0.685714 4 0
0.857143 4 0
1.02857 4 0
1.2 4 0
1.37143 4 0
1.54286 4 0
1.71429 4 0
1.88571 4 0
2.05714 4 0
2.22857 4 0
2.4 4 0
2.57143 4 0
2.74286 4 0
2.91429 4 0
3.08571 4 0
3.25714 4 0
3.42857 4 0
3.6 4 0
3.77143 4 0
3.94286 4 0
4.11429 4 0
4.28571 4 0
4.45714 4 0
4.62857 4 0
4.8 4 0
4.97143 4 0
5.14286 4 0
5.31429 4 0
5.48571 4 0
5.65714 4 0
5.82857 4 0
6 4 0
0 4.2 0
0.171429 4.2 0
0.342857 4.2 0
0.514286 4.2 0
0.685714 4.2 0
0.857143 4.2 0
1.02857 4.2 0
1.2 4.2 0
1.37143 4.2 0
1.54286 4.2 0
1.71429 4.2 0
1.88571 4.2 0
2.05714 4.2 0
2.22857 4.2 0
2.4 4.2 0
2.57143 4.2 0
2.74286 4.2 0
2.91429 4.2 0
3.08571 4.2 0
3.25714 4.2 0
3.42857 4.2 0
3.6 4.2 0
3.77143 4.2 0
3.94286 4.2 0
4.11429 4.2 0
4.28571 4.2 0
4.45714 4.2 0
4.62857 4.2 0
4.8 4.2 0
4.97143 4.2 0
5.14286 4.2 0
5.31429 4.2 0
5.48571 4.2 0
5.65714 4.2 0
5.82857 4.2 0
6 4.2 0
0 4.4 0
0.171429 4.4 0
0.342857 4.4 0
0.514286 4.4 0
0.685714 4.4 0
0.857143 4.4 0
1.02857 4.4 0
1.2 4.4 0
1.37143 4.4 0
1.54286 4.4 0
1.71429 4.4 0
1.88571 4.4 0
2.05714 4.4 0
2.22857 4.4 0
2.4 4.4 0
2.57143 4.4 0
2.74286 4.4 0
2.91429 4.4 0
3.08571 4.4 0
3.25714 4.4 0
3.42857 4.4 0
3.6 4.4 0
3.77143 4.4 0
3.94286 4.4 0
4.11429 4.4 0
4.28571 4.4 0
4.45714 4.4 0
4.62857 4.4 0
4.8 4.4 0
4.97143 4.4 0
5.14286 4.4 0
5.31429 4.4 0
5.48571 4.4 0
5.65714 4.4 0
5.82857 4.4 0
6 4.4 0
0 4.6 0
0.171429 4.6 0
0.342857 4.6 0
0.514286 4.6 0
0.685714 4.6 0
0.857143 4.6 0
1.02857 4.6 0
1.2 4.6 0
1.37143 4.6 0
1.54286 4.6 0
1.71429 4.6 0
1.88571 4.6 0
2.05714 4.6 0
2.22857 4.6 0
2.4 4.6 0
2.57143 4.6 0
2.74286 4.6 0
2.91429 4.6 0
3.08571 4.6 0
3.25714 4.6 0
3.42857 4.6 0
3.6 4.6 0
3.77143 4.6 0
3.94286 4.6 0
4.11429 4.6 0
4.28571 4.6 0
4.45714 4.6 0
4.62857 4.6 0
4.8 4.6 0
4.97143 4.6 0
5.14286 4.6 0
5.31429 4.6 0
5.48571 4.6 0
5.65714 4.6 0
5.82857 4.6 0
6 4.6 0
0 4.8 0
0.171429 4.8 0
0.342857 4.8 0
0.514286 4.8 0
0.685714 4.8 0
0.857143 4.8 0
1.02857 4.8 0
1.2 4.8 0
1.37143 4.8 0
1.54286 4.8 0
1.71429 4.8 0
1.88571 4.8 0
2.05714 4.8 0
2.22857 4.8 0
2.4 4.8 0
2.57143 4.8 0
2.74286 4.8 0
2.91429 4.8 0
3.08571 4.8 0
3.25714 4.8 0
3.42857 4.8 0
3.6 4.8 0
3.77143 4.8 0
3.94286 4.8 0
4.11429 4.8 0
4.28571 4.8 0
4.45714 4.8 0
4.62857 4.8 0
4.8 4.8 0
4.97143 4.8 0
5.14286 4.8 0
5.31429 4.8 0
5.48571 4.8 0
5.65714 4.8 0
5.82857 4.8 0
6 4.8 0
0 5 0
0.171429 5 0
0.342857 5 0
0.514286 5 0
0.685714 5 0
0.857143 5 0
1.02857 5 0
1.2 5 0
1.37143 5 0
1.54286 5 0
1.71429 5 0
1.88571 5 0
2.05714 5 0
2.22857 5 0
2.4 5 0
2.57143 5 0
2.74286 5 0
2.91429 5 0
3.08571 5 0
3.25714 5 0
3.42857 5 0
3.6 5 0
3.77143 5 0
3.94286 5 0
4.11429 5 0
4.28571 5 0
4.45714 5 0
4.62857 5 0
4.8 5 0
4.97143 5 0
5.14286 5 0
5.31429 5 0
5.48571 5 0
5.65714 5 0
5.82857 5 0
6 5 0

CELL_DATA 875
SCALARS phi float
LOOKUP_TABLE default 
4.711
4.711
4.711
4.711
4.711
4.711
4.711
4.711
4.711
4.711
4.711
4.711
4.711
4.711
4.711
4.711
4.711
4.711
4.711
4.711
4.711
4.711
4.711
4.711
4.711
4.711
4.711
4.711
4.711
4.711
4.711
4.711
4.711
4.711
4.711
4.711
4.711
4.711
4.711
4.711
4.711
4.711
4.711
4.711
4.711
4.711
4.711
4.711
4.711
4.711
4.711
4.711
4.711
4.711
4.711
4.711
4.711
4.711
4.711
4.711
4.711
4.711
4.711
4.711
4.711
4.711
4.711
4.711
4.711
4.711
4.711
4.711
4.711
4.711
4.711
4.711
4.711
4.711
4.711
4.711
4.711
4.711
4.711
4.711
4.711
4.711
4.711
4.711
4.711
4.711
4.711
4.711
4.711
4.711
4.711
4.711
4.711
4.711
4.711
4.711
4.711
4.711
4.711
4.711
4.711
4.711
4.711
4.711
4.711
4.711
4.711
4.711
4.711
4.711
4.711
4.711
4.711
4.711
4.711
4.711
4.711
4.711
4.711
4.711
4.711
4.711
4.711
4.711
4.711
4.711
4.711
4.711
4.711
4.711
4.711
4.711
4.711
4.711
4.711
4.711
4.711
4.711
4.711
4.711
4.711
4.711
4.711
4.711
4.711
4.711
4.711
4.711
4.711
4.711
4.711
4.711
4.711
4.711
4.711
4.711
4.711
4.711
4.711
4.711
4.711
4.711
4.711
4.711
4.711
4.711
4.711
4.711
4.711
4.711
4.711
4.711
4.711
4.711
4.711
4.711
4.711
4.711
4.711
4.711
4.711
4.711
4.711
4.711
4.711
4.711
4.711
4.711
4.711
4.711
4.711
4.711
4.711
4.711
4.711
4.711
4.711
4.711
4.711
4.711
4.711
4.711
4.711
4.711
4.711
4.711
4.711
4.711
4.711
4.711
4.711
4.711
4.711
4.711
4.711
4.711
4.711
4.711
4.711
4.711
4.711
4.711
4.711
4.711
4.711
4.711
4.711
4.711
4.711
4.711
4.711
4.711
4.711
4.711
4.711
4.711
4.711
4.711
4.711
4.711
4.711
4.711
4.711
4.711
4.711
4.711
4.711
4.711
4.711
4.711
4.711
4.711
4.711
4.711
4.711
4.711
4.711
4.711
4.711
4.711
4.711
4.711
4.711
4.711
4.711
4.711
4.711
4.711
4.711
4.711
4.711
4.711
4.711
4.711
4.711
4.711
4.711
4.711
4.711
4.711
4.711
4.711
4.711
4.711
4.711
4.711
4.711
4.711
4.711
4.711
4.711
4.711
4.711
4.711
4.711
4.711
4.711
4.711
4.711
4.711
4.711
4.711
4.711
4.711
4.711
4.711
4.711
4.711
4.711
4.711
4.711
4.711
4.711
4.711
4.711
4.711
4.711
4.711
4.711
4.711
4.711
4.711
4.711
4.711
4.711
4.711
4.711
4.711
4.711
4.711
4.711
4.711
4.711
4.711
4.711
4.711
4.711
4.711
4.711
4.711
4.711
4.711
4.711
4.711
4.711
4.711
4.711
4.711
4.711
4.711
4.711
4.711
4.711
4.711
4.711
4.711
4.711
4.711
4.711
4.711
4.711
4.711
4.711
4.711
4.711
4.711
4.711
4.711
4.711
4.711
4.711
4.711
4.711
4.711
4.711
4.711
4.711
4.711
4.711
4.711
4.711
4.711
4.711
4.711
4.711
4.711
4.711
4.711
4.711
4.711
4.711
4.711
4.711
4.711
4.711
4.711
4.711
4.711
4.711
4.711
4.711
4.711
4.711
4.711
4.711
4.711
4.711
4.711
4.711
4.711
4.711
4.711
4.711
4.711
4.711
4.711
4.711
4.711
4.711
4.711
4.711
4.711
4.711
4.711
4.711
4.711
4.711
4.711
4.711
4.711
4.711
4.711
4.711
4.711
4.711
4.711
4.711
4.711
4.711
4.711
4.711
4.711
4.711
4.711
4.711
4.711
4.711
4.711
4.711
4.711
4.711
4.711
4.711
4.711
4.711
4.711
4.711
4.711
4.711
4.711
4.711
4.711
4.711
4.711
4.711
4.711
4.711
4.711
4.711
4.711
4.711
4.711
4.711
4.711
4.711
4.711
4.711
4.711
4.711
4.711
4.711
4.711
4.711
4.711
4.711
4.711
4.711
4.711
4.711
4.711
4.711
4.711
4.711
4.711
4.711
4.711
4.711
4.711
4.711
4.711
4.711
4.711
4.711
4.711
4.711
4.711
4.711
4.711
4.711
4.711
4.711
4.711
4.711
4.711
4.711
4.711
4.711
4.711
4.711
4.711
4.711
4.711
4.711
4.711
4.711
4.711
4.711
4.711
4.711
4.711
4.711
4.711
4.711
4.711
4.711
4.711
4.711
4.711
4.711
4.711
4.711
4.711
4.711
4.711
4.711
4.711
4.711
4.711
4.711
4.711
4.711
4.711
4.711
4.711
4.711
4.711
4.711
4.711
4.711
4.711
4.711
4.711
4.711
4.711
4.711
4.711
4.711
4.711
4.711
4.711
4.711
4.711
4.711
4.711
4.711
4.711
4.711
4.711
4.711
4.711
4.711
4.711
4.711
4.711
4.711
4.711
4.711
4.711
4.711
4.711
4.711
4.711
4.711
4.711
4.711
4.711
4.711
4.711
4.711
4.711
4.711
4.711
4.711
4.711
4.711
4.711
4.711
4.711
4.711
4.711
4.711
4.711
4.711
4.711
4.711
4.711
4.711
4.711
4.711
4.711
4.711
4.711
4.711
4.711
4.711
4.711
4.711
4.711
4.711
4.711
4.711
4.711
4.711
4.711
4.711
4.711
4.711
4.711
4.711
4.711
4.711
4.711
4.711
4.711
4.711
4.711
4.711
4.711
4.711
4.711
4.711
4.711
4.711
4.711
4.711
4.711
4.711
4.711
4.711
4.711
4.711
4.711
4.711
4.711
4.711
4.711
4.711
4.711
4.711
4.711
4.711
4.711
4.711
4.711
4.711
4.711
4.711
4.711
4.711
4.711
4.711
4.711
4.711
4.711
4.711
4.711
4.711
4.711
4.711
4.711
4.711
4.711
4.711
4.711
4.711
4.711
4.711
4.711
4.711
4.711
4.711
4.711
4.711
4.711
4.711
4.711
4.711
4.711
4.711
4.711
4.711
4.711
4.711
4.711
4.711
4.711
4.711
4.711
4.711
4.711
4.711
4.711
4.711
4.711
4.711
4.711
4.711
4.711
4.711
4.711
4.711
4.711
4.711
4.711
4.711
4.711
4.711
4.711
4.711
4.711
4.711
4.711
4.711
4.711
4.711
4.711
4.711
4.711
4.711
4.711
4.711
4.711
4.711
4.711
4.711
4.711
4.711
4.711
4.711
4.711
4.711
4.711
4.711
4.711
4.711
4.711
4.711
4.711
4.711
4.711
4.711
4.711
4.711
4.711
4.711
4.711
4.711
4.711
4.711
4.711
4.711
4.711
4.711
4.711
4.711
4.711
4.711
4.711
4.711
4.711
4.711
4.711
4.711
4.711
4.711
4.711
4.711
4.711
4.711
4.711
4.711
4.711
4.711
4.711
4.711
4.711
4.711
4.711
4.711
4.711
4.711
4.711
4.711
4.711
4.711
4.711
4.711
4.711
4.711
4.711
4.711
4.711
4.711
4.711
4.711
4.711
4.711
4.711
4.711
4.711
4.711
4.711
4.711
4.711
4.711
4.711
4.711
4.711
4.711
4.711
4.711
4.711
4.711
4.711
4.711
4.711
4.711
4.711
4.711
4.711
4.711
4.711
4.711
4.711
4.711
4.711
4.711
4.711
4.711
4.711
4.711
4.711
4.711
4.711
4.711
4.711
4.711
4.711
4.711
4.711
4.711

SCALARS p float
LOOKUP_TABLE default 
35.3522
35.3522
35.1912
35.1249
35.112
35.112
0
0
0
-153.687
-153.687
-154.925
-156.564
-157.298
-155.598
-150.141
-140.029
-126.062
-109.892
-93.2153
-77.333
-63.0409
-50.7033
-40.291
-31.5679
-24.0266
-17.865
-12.749
-8.41045
-4.63845
-1.27233
1.80646
4.68205
7.41291
10
35.3522
35.3522
35.1912
35.1249
35.112
35.112
0
0
0
-153.687
-153.687
-154.925
-156.564
-157.298
-155.598
-150.141
-140.029
-126.062
-109.892
-93.2153
-77.333
-63.0409
-50.7033
-40.291
-31.5679
-24.0266
-17.865
-12.749
-8.41045
-4.63845
-1.27233
1.80646
4.68205
7.41291
10
35.0039
35.0039
34.8894
34.9006
34.9628
34.9628
0
0
0
-156.232
-156.232
-157.942
-160.55
-162.643
-162.302
-157.26
-146.093
-130.582
-113.027
-95.3628
-78.8698
-64.2098
-51.7096
-40.9883
-31.8832
-24.3727
-18.1829
-13.0248
-8.64333
-4.83077
-1.42578
1.69222
4.61027
7.39097
10
33.9725
33.9725
33.8947
33.9975
34.1633
34.1633
0
0
0
-160.627
-160.627
-163.146
-167.177
-170.998
-171.941
-166.679
-153.845
-136.372
-117.169
-98.3552
-81.1816
-65.9842
-52.8599
-41.8517
-32.6904
-25.1198
-18.8517
-13.6067
-9.13823
-5.24189
-1.75648
1.44044
4.43903
7.30573
10
31.825
31.825
31.7519
31.9057
32.1556
32.1556
0
0
0
-163.525
-163.525
-166.825
-172.262
-177.937
-180.335
-174.26
-159.862
-140.785
-120.312
-100.556
-82.6718
-67.1072
-53.8778
-42.8103
-33.617
-25.9954
-19.6503
-14.3113
-9.74211
-5.74523
-2.16212
1.12982
4.22251
7.18495
10
28.1658
28.1658
28.0085
28.0439
28.2219
28.2219
0
0
0
-162.508
-162.508
-166.393
-172.909
-180.115
-183.523
-176.122
-160.647
-140.841
-120.018
-100.25
-82.5605
-67.2674
-54.3037
-43.4306
-34.3494
-26.7623
-20.3915
-14.9878
-10.3333
-6.2426
-2.56422
0.821658
4.0065
7.06023
10
22.8134
22.8134
22.3573
21.7713
21.2044
21.2044
0
0
0
-158.663
-158.663
-162.672
-169.837
-177.99
-178.184
-169.032
-153.653
-134.945
-115.544
-97.1596
-80.6464
-66.2716
-53.9757
-43.5508
-34.7416
-27.2934
-20.9673
-15.5473
-10.8405
-6.67876
-2.92112
0.546425
3.81265
6.9465
10
16.0557
16.0557
14.9379
12.5629
8.30808
8.30808
-56.495
-78.6338
-99.8888
-159.158
-159.158
-158.575
-163.64
-166.454
-163.387
-154.425
-140.974
-124.997
-108.322
-92.2527
-77.5301
-64.4574
-53.064
-43.2357
-34.7988
-27.5635
-21.3405
-15.951
-11.2292
-7.02564
-3.21174
0.319005
3.65093
6.85038
10
8.90783
8.90783
7.01314
2.09166
-9.79696
-41.6811
-56.495
-78.6338
-99.8888
-148.628
-145.591
-147.147
-149.771
-149.813
-146.172
-138.612
-127.729
-114.716
-100.832
-87.0895
-74.1545
-62.3788
-51.8867
-42.6623
-34.6147
-27.6178
-21.5284
-16.2017
-11.4954
-7.27741
-3.43059
0.143614
3.52427
6.77405
10
2.79346
2.79346
0.798866
-4.1535
-14.2265
-32.4475
-56.495
-78.6338
-99.8888
-115.243
-124.373
-130.464
-134.126
-134.685
-131.902
-125.855
-117.043
-106.309
-94.5838
-82.6746
-71.1789
-60.4688
-50.7316
-42.0243
-34.3204
-27.5442
-21.5893
-16.3367
-11.6628
-7.44851
-3.58646
0.0149339
3.42959
6.71621
10
-1.56184
-1.56184
-3.25717
-7.29223
-14.7681
-26.9307
-43.618
-61.8771
-79.9162
-95.7991
-107.931
-116.478
-121.614
-123.27
-121.557
-116.777
-109.45
-100.284
-90.0449
-79.4184
-68.949
-59.0114
-49.8291
-41.5063
-34.0614
-27.455
-21.607
-16.4169
-11.7738
-7.56775
-3.69827
-0.0790864
3.35964
6.6733
10
-4.04459
-4.04459
-5.41172
-8.60352
-14.3148
-23.4515
-36.4626
-52.1565
-68.802
-84.5328
-97.6829
-107.481
-113.662
-116.2
-115.307
-111.384
-104.982
-96.7614
-87.41
-77.5519
-67.6992
-58.2256
-49.3737
-41.2757
-33.9779
-27.4638
-21.6704
-16.5089
-11.8762
-7.66797
-3.78765
-0.152145
3.30611
6.64103
10
-4.78343
-4.78343
-5.93461
-8.62588
-13.4494
-21.3357
-33.0516
-47.9379
-64.3343
-80.2483
-93.8951
-104.247
-110.893
-113.804
-113.242
-109.663
-103.627
-95.7752
-86.7628
-77.1902
-67.5581
-58.2408
-49.4891
-41.4467
-34.1716
-27.6576
-21.8499
-16.6661
-12.0079
-7.774
-3.86991
-0.213318
3.2634
6.61549
10
-4.04459
-4.04459
-5.41172
-8.60352
-14.3148
-23.4515
-36.4626
-52.1565
-68.802
-84.5328
-97.6829
-107.481
-113.662
-116.2
-115.307
-111.384
-104.982
-96.7614
-87.41
-77.5519
-67.6992
-58.2256
-49.3737
-41.2757
-33.9779
-27.4638
-21.6704
-16.5089
-11.8762
-7.66797
-3.78765
-0.152145
3.30611
6.64103
10
-1.56184
-1.56184
-3.25717
-7.29223
-14.7681
-26.9307
-43.618
-61.8771
-79.9162
-95.7991
-107.931
-116.478
-121.614
-123.27
-121.557
-116.777
-109.45
-100.284
-90.0449
-79.4184
-68.949
-59.0114
-49.8291
-41.5063
-34.0614
-27.455
-21.607
-16.4169
-11.7738
-7.56775
-3.69827
-0.0790864
3.35964
6.6733
10
2.79346
2.79346
0.798866
-4.1535
-14.2265
-32.4475
-56.495
-78.6338
-99.8888
-115.243
-124.373
-130.464
-134.126
-134.685
-131.902
-125.855
-117.043
-106.309
-94.5838
-82.6746
-71.1789
-60.4688
-50.7316
-42.0243
-34.3204
-27.5442
-21.5893
-16.3367
-11.6628
-7.44851
-3.58646
0.014934
3.42959
6.71621
10
8.90783
8.90783
7.01314
2.09166
-9.79696
-41.6811
-56.495
-78.6338
-99.8888
-148.628
-145.591
-147.147
-149.771
-149.813
-146.172
-138.612
-127.729
-114.716
-100.832
-87.0895
-74.1545
-62.3788
-51.8867
-42.6623
-34.6147
-27.6177
-21.5284
-16.2017
-11.4954
-7.27741
-3.43059
0.143614
3.52427
6.77405
10
16.0557
16.0557
14.9379
12.5629
8.30808
8.30808
-56.495
-78.6338
-99.8888
-159.158
-159.158
-158.575
-163.64
-166.454
-163.387
-154.425
-140.974
-124.997
-108.322
-92.2527
-77.5301
-64.4574
-53.0639
-43.2357
-34.7988
-27.5635
-21.3405
-15.951
-11.2292
-7.02564
-3.21174
0.319005
3.65093
6.85038
10
22.8134
22.8134
22.3573
21.7713
21.2044
21.2044
0
0
0
-158.663
-158.663
-162.672
-169.837
-177.99
-178.184
-169.032
-153.653
-134.945
-115.544
-97.1596
-80.6464
-66.2716
-53.9757
-43.5508
-34.7416
-27.2934
-20.9673
-15.5473
-10.8405
-6.67876
-2.92112
0.546425
3.81265
6.9465
10
28.1658
28.1658
28.0085
28.0439
28.2219
28.2219
0
0
0
-162.508
-162.508
-166.393
-172.909
-180.115
-183.523
-176.122
-160.647
-140.841
-120.018
-100.25
-82.5605
-67.2674
-54.3037
-43.4306
-34.3494
-26.7623
-20.3915
-14.9878
-10.3333
-6.2426
-2.56422
0.821658
4.0065
7.06023
10
31.825
31.825
31.7519
31.9057
32.1556
32.1556
0
0
0
-163.525
-163.525
-166.825
-172.262
-177.937
-180.335
-174.26
-159.862
-140.785
-120.312
-100.556
-82.6718
-67.1072
-53.8778
-42.8103
-33.617
-25.9954
-19.6503
-14.3113
-9.74211
-5.74523
-2.16212
1.12982
4.22251
7.18495
10
33.9725
33.9725
33.8947
33.9975
34.1633
34.1633
0
0
0
-160.627
-160.627
-163.146
-167.177
-170.998
-171.941
-166.679
-153.845
-136.372
-117.169
-98.3552
-81.1816
-65.9842
-52.8599
-41.8517
-32.6904
-25.1198
-18.8517
-13.6067
-9.13823
-5.24189
-1.75648
1.44044
4.43903
7.30573
10
35.0039
35.0039
34.8894
34.9006
34.9628
34.9628
0
0
0
-156.232
-156.232
-157.942
-160.55
-162.643
-162.302
-157.26
-146.093
-130.582
-113.027
-95.3628
-78.8698
-64.2098
-51.7096
-40.9883
-31.8832
-24.3727
-18.1829
-13.0248
-8.64333
-4.83077
-1.42578
1.69222
4.61027
7.39097
10
35.3522
35.3522
35.1912
35.1249
35.112
35.112
0
0
0
-153.687
-153.687
-154.925
-156.564
-157.298
-155.598
-150.141
-140.029
-126.062
-109.892
-93.2153
-77.333
-63.0409
-50.7033
-40.291
-31.5679
-24.0266
-17.865
-12.749
-8.41045
-4.63845
-1.27233
1.80646
4.68205
7.41291
10
35.3522
35.3522
35.1912
35.1249
35.112
35.112
0
0
0
-153.687
-153.687
-154.925
-156.564
-157.298
-155.598
-150.141
-140.029
-126.062
-109.892
-93.2153
-77.333
-63.0409
-50.7033
-40.291
-31.5679
-24.0266
-17.865
-12.749
-8.41045
-4.63845
-1.27233
1.80646
4.68205
7.41291
10

SCALARS  u float
LOOKUP_TABLE default 
0.00966667
0.00664272
0.00720505
0.00881089
0.0145422
0.0377435
0
0
0
0.0811307
0.0788238
0.075988
0.0634006
-0.017387
-0.0482322
-0.0522779
-0.0523773
-0.0495443
-0.0444486
-0.0378554
-0.0304555
-0.0228181
-0.015397
-0.00852051
-0.00226873
0.00308127
0.00745975
0.0110308
0.0138867
0.0161298
0.0178658
0.0191965
0.020213
0.020964
0.020964
0.0363578
0.0345775
0.0329614
0.0323815
0.0396215
0.0816265
0
0
0
0.157224
0.137241
0.115891
0.0781879
-0.0891608
-0.184093
-0.196781
-0.195044
-0.182407
-0.16166
-0.13569
-0.106937
-0.0773259
-0.0484126
-0.0212209
0.00322543
0.0243697
0.0421729
0.0568683
0.068752
0.0781888
0.085575
0.0913049
0.0957438
0.099149
0.0997522
0.0591261
0.0566577
0.0527623
0.0488094
0.0520449
0.0888814
0
0
0
0.162395
0.146691
0.130494
0.101989
-0.0271316
-0.16551
-0.175407
-0.168635
-0.152211
-0.129433
-0.103026
-0.0749495
-0.0464993
-0.0184763
0.00800884
0.0321242
0.0538694
0.0731873
0.0899595
0.104253
0.116234
0.12613
0.134203
0.140725
0.145883
0.146982
0.079436
0.0761236
0.0702194
0.0630796
0.0620648
0.0925326
0
0
0
0.167418
0.158965
0.151445
0.134678
0.060621
-0.0834134
-0.111781
-0.106549
-0.0918662
-0.0718375
-0.0493119
-0.0259539
-0.0028147
0.0193583
0.0402221
0.059715
0.0777659
0.0941522
0.108747
0.121512
0.132492
0.14179
0.149556
0.155959
0.161116
0.162269
0.0975732
0.0937687
0.0865819
0.0770002
0.0720734
0.0951758
0
0
0
0.172314
0.172944
0.176746
0.173866
0.142061
0.0575933
0.00597542
-0.011135
-0.00798601
0.00404251
0.0190829
0.0349167
0.0505593
0.0653137
0.0793403
0.0926297
0.10512
0.116703
0.127266
0.136719
0.145017
0.152168
0.158225
0.163273
0.167367
0.16828
0.113601
0.109905
0.102667
0.0919593
0.0834684
0.0973624
0
0
0
0.175984
0.186627
0.202744
0.214941
0.212506
0.189336
0.147682
0.111706
0.0964391
0.0947508
0.0989724
0.105208
0.111892
0.118492
0.124883
0.131089
0.13715
0.14305
0.148713
0.154026
0.15888
0.163197
0.166939
0.170106
0.172691
0.173247
0.127551
0.124892
0.119757
0.110785
0.0998776
0.107533
0
0
0
0.174043
0.20299
0.230598
0.256403
0.273952
0.275761
0.257108
0.229164
0.205858
0.19178
0.184033
0.179577
0.176763
0.174795
0.173345
0.172336
0.171805
0.171785
0.172246
0.173089
0.174173
0.175355
0.176518
0.17758
0.178472
0.178632
0.139444
0.138971
0.139167
0.138299
0.135316
0.200174
0.203661
0.227712
0.273878
0.379955
0.370023
0.368086
0.373992
0.375805
0.366935
0.348072
0.324065
0.300172
0.279571
0.262856
0.249344
0.23814
0.228527
0.220061
0.21255
0.205987
0.200435
0.195929
0.192419
0.189773
0.187819
0.186384
0.185318
0.184496
0.184265
0.149258
0.151488
0.159024
0.172348
0.195889
0.243987
0.281082
0.313601
0.369794
0.413983
0.413263
0.418045
0.423568
0.423977
0.417126
0.40339
0.38482
0.363994
0.343076
0.323374
0.305394
0.28911
0.27427
0.260624
0.248055
0.23661
0.226431
0.217652
0.210308
0.204319
0.199516
0.195697
0.192666
0.190258
0.189674
0.156904
0.160816
0.172894
0.194467
0.228758
0.27455
0.316011
0.35235
0.391816
0.422514
0.436454
0.446838
0.453456
0.454795
0.45009
0.439652
0.424585
0.406429
0.386708
0.366626
0.346952
0.328049
0.310023
0.292881
0.276681
0.261592
0.247865
0.235736
0.225333
0.216632
0.209489
0.203691
0.199015
0.195269
0.194392
0.162341
0.166619
0.179571
0.202797
0.237795
0.282515
0.327456
0.367772
0.403739
0.432702
0.453094
0.467102
0.475386
0.47788
0.474414
0.465536
0.452155
0.435419
0.416503
0.396425
0.375945
0.355555
0.33554
0.316093
0.297424
0.279818
0.263618
0.249137
0.236561
0.225912
0.217063
0.209806
0.203901
0.199147
0.198044
0.165579
0.169512
0.181281
0.202555
0.234465
0.275758
0.320788
0.364051
0.402562
0.434258
0.458297
0.475072
0.485061
0.488679
0.486279
0.478562
0.466395
0.450762
0.432653
0.412953
0.392371
0.371428
0.350493
0.329864
0.309856
0.290844
0.273235
0.257391
0.243538
0.231721
0.221836
0.213676
0.207002
0.201609
0.20036
0.166648
0.170252
0.180962
0.200416
0.22987
0.268784
0.313026
0.357205
0.397311
0.430821
0.456661
0.474846
0.485792
0.490063
0.488295
0.481252
0.469788
0.454831
0.437298
0.418018
0.397667
0.376756
0.355669
0.334736
0.314311
0.294813
0.276688
0.260334
0.245999
0.233749
0.223484
0.215001
0.208056
0.202434
0.201131
0.165579
0.169512
0.181281
0.202555
0.234465
0.275758
0.320788
0.364051
0.402562
0.434258
0.458297
0.475072
0.485061
0.488679
0.486279
0.478562
0.466395
0.450762
0.432653
0.412953
0.392371
0.371428
0.350493
0.329864
0.309856
0.290844
0.273235
0.257391
0.243538
0.231721
0.221836
0.213676
0.207002
0.201609
0.20036
0.162341
0.166619
0.179571
0.202797
0.237795
0.282515
0.327456
0.367772
0.403739
0.432702
0.453094
0.467102
0.475386
0.47788
0.474414
0.465536
0.452155
0.435419
0.416503
0.396425
0.375945
0.355555
0.33554
0.316093
0.297424
0.279818
0.263618
0.249137
0.236561
0.225912
0.217063
0.209806
0.203901
0.199147
0.198044
0.156904
0.160816
0.172894
0.194467
0.228758
0.27455
0.316011
0.35235
0.391816
0.422514
0.436454
0.446838
0.453456
0.454795
0.45009
0.439652
0.424585
0.406429
0.386708
0.366626
0.346952
0.328049
0.310023
0.292881
0.276681
0.261592
0.247865
0.235736
0.225333
0.216632
0.209489
0.203691
0.199015
0.195269
0.194392
0.149258
0.151488
0.159024
0.172348
0.195889
0.243987
0.281082
0.313601
0.369794
0.413983
0.413263
0.418045
0.423568
0.423977
0.417126
0.40339
0.38482
0.363994
0.343076
0.323374
0.305394
0.28911
0.27427
0.260624
0.248055
0.23661