# vtk DataFile Version 3.0
vtk output261
ASCII
DATASET STRUCTURED_GRID
DIMENSIONS 51 21 1
POINTS 1071 float
0 0 0
0.2 0 0
0.4 0 0
0.6 0 0
0.8 0 0
1 0 0
1.2 0 0
1.4 0 0
1.6 0 0
1.8 0 0
2 0 0
2.2 0 0
2.4 0 0
2.6 0 0
2.8 0 0
3 0 0
3.2 0 0
3.4 0 0
3.6 0 0
3.8 0 0
4 0 0
4.2 0 0
4.4 0 0
4.6 0 0
4.8 0 0
5 0 0
5.2 0 0
5.4 0 0
5.6 0 0
5.8 0 0
6 0 0
6.2 0 0
6.4 0 0
6.6 0 0
6.8 0 0
7 0 0
7.2 0 0
7.4 0 0
7.6 0 0
7.8 0 0
8 0 0
8.2 0 0
8.4 0 0
8.6 0 0
8.8 0 0
9 0 0
9.2 0 0
9.4 0 0
9.6 0 0
9.8 0 0
10 0 0
0 0.05 0
0.2 0.05 0
0.4 0.05 0
0.6 0.05 0
0.8 0.05 0
1 0.05 0
1.2 0.05 0
1.4 0.05 0
1.6 0.05 0
1.8 0.05 0
2 0.05 0
2.2 0.05 0
2.4 0.05 0
2.6 0.05 0
2.8 0.05 0
3 0.05 0
3.2 0.05 0
3.4 0.05 0
3.6 0.05 0
3.8 0.05 0
4 0.05 0
4.2 0.05 0
4.4 0.05 0
4.6 0.05 0
4.8 0.05 0
5 0.05 0
5.2 0.05 0
5.4 0.05 0
5.6 0.05 0
5.8 0.05 0
6 0.05 0
6.2 0.05 0
6.4 0.05 0
6.6 0.05 0
6.8 0.05 0
7 0.05 0
7.2 0.05 0
7.4 0.05 0
7.6 0.05 0
7.8 0.05 0
8 0.05 0
8.2 0.05 0
8.4 0.05 0
8.6 0.05 0
8.8 0.05 0
9 0.05 0
9.2 0.05 0
9.4 0.05 0
9.6 0.05 0
9.8 0.05 0
10 0.05 0
0 0.1 0
0.2 0.1 0
0.4 0.1 0
0.6 0.1 0
0.8 0.1 0
1 0.1 0
1.2 0.1 0
1.4 0.1 0
1.6 0.1 0
1.8 0.1 0
2 0.1 0
2.2 0.1 0
2.4 0.1 0
2.6 0.1 0
2.8 0.1 0
3 0.1 0
3.2 0.1 0
3.4 0.1 0
3.6 0.1 0
3.8 0.1 0
4 0.1 0
4.2 0.1 0
4.4 0.1 0
4.6 0.1 0
4.8 0.1 0
5 0.1 0
5.2 0.1 0
5.4 0.1 0
5.6 0.1 0
5.8 0.1 0
6 0.1 0
6.2 0.1 0
6.4 0.1 0
6.6 0.1 0
6.8 0.1 0
7 0.1 0
7.2 0.1 0
7.4 0.1 0
7.6 0.1 0
7.8 0.1 0
8 0.1 0
8.2 0.1 0
8.4 0.1 0
8.6 0.1 0
8.8 0.1 0
9 0.1 0
9.2 0.1 0
9.4 0.1 0
9.6 0.1 0
9.8 0.1 0
10 0.1 0
0 0.15 0
0.2 0.15 0
0.4 0.15 0
0.6 0.15 0
0.8 0.15 0
1 0.15 0
1.2 0.15 0
1.4 0.15 0
1.6 0.15 0
1.8 0.15 0
2 0.15 0
2.2 0.15 0
2.4 0.15 0
2.6 0.15 0
2.8 0.15 0
3 0.15 0
3.2 0.15 0
3.4 0.15 0
3.6 0.15 0
3.8 0.15 0
4 0.15 0
4.2 0.15 0
4.4 0.15 0
4.6 0.15 0
4.8 0.15 0
5 0.15 0
5.2 0.15 0
5.4 0.15 0
5.6 0.15 0
5.8 0.15 0
6 0.15 0
6.2 0.15 0
6.4 0.15 0
6.6 0.15 0
6.8 0.15 0
7 0.15 0
7.2 0.15 0
7.4 0.15 0
7.6 0.15 0
7.8 0.15 0
8 0.15 0
8.2 0.15 0
8.4 0.15 0
8.6 0.15 0
8.8 0.15 0
9 0.15 0
9.2 0.15 0
9.4 0.15 0
9.6 0.15 0
9.8 0.15 0
10 0.15 0
0 0.2 0
0.2 0.2 0
0.4 0.2 0
0.6 0.2 0
0.8 0.2 0
1 0.2 0
1.2 0.2 0
1.4 0.2 0
1.6 0.2 0
1.8 0.2 0
2 0.2 0
2.2 0.2 0
2.4 0.2 0
2.6 0.2 0
2.8 0.2 0
3 0.2 0
3.2 0.2 0
3.4 0.2 0
3.6 0.2 0
3.8 0.2 0
4 0.2 0
4.2 0.2 0
4.4 0.2 0
4.6 0.2 0
4.8 0.2 0
5 0.2 0
5.2 0.2 0
5.4 0.2 0
5.6 0.2 0
5.8 0.2 0
6 0.2 0
6.2 0.2 0
6.4 0.2 0
6.6 0.2 0
6.8 0.2 0
7 0.2 0
7.2 0.2 0
7.4 0.2 0
7.6 0.2 0
7.8 0.2 0
8 0.2 0
8.2 0.2 0
8.4 0.2 0
8.6 0.2 0
8.8 0.2 0
9 0.2 0
9.2 0.2 0
9.4 0.2 0
9.6 0.2 0
9.8 0.2 0
10 0.2 0
0 0.25 0
0.2 0.25 0
0.4 0.25 0
0.6 0.25 0
0.8 0.25 0
1 0.25 0
1.2 0.25 0
1.4 0.25 0
1.6 0.25 0
1.8 0.25 0
2 0.25 0
2.2 0.25 0
2.4 0.25 0
2.6 0.25 0
2.8 0.25 0
3 0.25 0
3.2 0.25 0
3.4 0.25 0
3.6 0.25 0
3.8 0.25 0
4 0.25 0
4.2 0.25 0
4.4 0.25 0
4.6 0.25 0
4.8 0.25 0
5 0.25 0
5.2 0.25 0
5.4 0.25 0
5.6 0.25 0
5.8 0.25 0
6 0.25 0
6.2 0.25 0
6.4 0.25 0
6.6 0.25 0
6.8 0.25 0
7 0.25 0
7.2 0.25 0
7.4 0.25 0
7.6 0.25 0
7.8 0.25 0
8 0.25 0
8.2 0.25 0
8.4 0.25 0
8.6 0.25 0
8.8 0.25 0
9 0.25 0
9.2 0.25 0
9.4 0.25 0
9.6 0.25 0
9.8 0.25 0
10 0.25 0
0 0.3 0
0.2 0.3 0
0.4 0.3 0
0.6 0.3 0
0.8 0.3 0
1 0.3 0
1.2 0.3 0
1.4 0.3 0
1.6 0.3 0
1.8 0.3 0
2 0.3 0
2.2 0.3 0
2.4 0.3 0
2.6 0.3 0
2.8 0.3 0
3 0.3 0
3.2 0.3 0
3.4 0.3 0
3.6 0.3 0
3.8 0.3 0
4 0.3 0
4.2 0.3 0
4.4 0.3 0
4.6 0.3 0
4.8 0.3 0
5 0.3 0
5.2 0.3 0
5.4 0.3 0
5.6 0.3 0
5.8 0.3 0
6 0.3 0
6.2 0.3 0
6.4 0.3 0
6.6 0.3 0
6.8 0.3 0
7 0.3 0
7.2 0.3 0
7.4 0.3 0
7.6 0.3 0
7.8 0.3 0
8 0.3 0
8.2 0.3 0
8.4 0.3 0
8.6 0.3 0
8.8 0.3 0
9 0.3 0
9.2 0.3 0
9.4 0.3 0
9.6 0.3 0
9.8 0.3 0
10 0.3 0
0 0.35 0
0.2 0.35 0
0.4 0.35 0
0.6 0.35 0
0.8 0.35 0
1 0.35 0
1.2 0.35 0
1.4 0.35 0
1.6 0.35 0
1.8 0.35 0
2 0.35 0
2.2 0.35 0
2.4 0.35 0
2.6 0.35 0
2.8 0.35 0
3 0.35 0
3.2 0.35 0
3.4 0.35 0
3.6 0.35 0
3.8 0.35 0
4 0.35 0
4.2 0.35 0
4.4 0.35 0
4.6 0.35 0
4.8 0.35 0
5 0.35 0
5.2 0.35 0
5.4 0.35 0
5.6 0.35 0
5.8 0.35 0
6 0.35 0
6.2 0.35 0
6.4 0.35 0
6.6 0.35 0
6.8 0.35 0
7 0.35 0
7.2 0.35 0
7.4 0.35 0
7.6 0.35 0
7.8 0.35 0
8 0.35 0
8.2 0.35 0
8.4 0.35 0
8.6 0.35 0
8.8 0.35 0
9 0.35 0
9.2 0.35 0
9.4 0.35 0
9.6 0.35 0
9.8 0.35 0
10 0.35 0
0 0.4 0
0.2 0.4 0
0.4 0.4 0
0.6 0.4 0
0.8 0.4 0
1 0.4 0
1.2 0.4 0
1.4 0.4 0
1.6 0.4 0
1.8 0.4 0
2 0.4 0
2.2 0.4 0
2.4 0.4 0
2.6 0.4 0
2.8 0.4 0
3 0.4 0
3.2 0.4 0
3.4 0.4 0
3.6 0.4 0
3.8 0.4 0
4 0.4 0
4.2 0.4 0
4.4 0.4 0
4.6 0.4 0
4.8 0.4 0
5 0.4 0
5.2 0.4 0
5.4 0.4 0
5.6 0.4 0
5.8 0.4 0
6 0.4 0
6.2 0.4 0
6.4 0.4 0
6.6 0.4 0
6.8 0.4 0
7 0.4 0
7.2 0.4 0
7.4 0.4 0
7.6 0.4 0
7.8 0.4 0
8 0.4 0
8.2 0.4 0
8.4 0.4 0
8.6 0.4 0
8.8 0.4 0
9 0.4 0
9.2 0.4 0
9.4 0.4 0
9.6 0.4 0
9.8 0.4 0
10 0.4 0
0 0.45 0
0.2 0.45 0
0.4 0.45 0
0.6 0.45 0
0.8 0.45 0
1 0.45 0
1.2 0.45 0
1.4 0.45 0
1.6 0.45 0
1.8 0.45 0
2 0.45 0
2.2 0.45 0
2.4 0.45 0
2.6 0.45 0
2.8 0.45 0
3 0.45 0
3.2 0.45 0
3.4 0.45 0
3.6 0.45 0
3.8 0.45 0
4 0.45 0
4.2 0.45 0
4.4 0.45 0
4.6 0.45 0
4.8 0.45 0
5 0.45 0
5.2 0.45 0
5.4 0.45 0
5.6 0.45 0
5.8 0.45 0
6 0.45 0
6.2 0.45 0
6.4 0.45 0
6.6 0.45 0
6.8 0.45 0
7 0.45 0
7.2 0.45 0
7.4 0.45 0
7.6 0.45 0
7.8 0.45 0
8 0.45 0
8.2 0.45 0
8.4 0.45 0
8.6 0.45 0
8.8 0.45 0
9 0.45 0
9.2 0.45 0
9.4 0.45 0
9.6 0.45 0
9.8 0.45 0
10 0.45 0
0 0.5 0
0.2 0.5 0
0.4 0.5 0
0.6 0.5 0
0.8 0.5 0
1 0.5 0
1.2 0.5 0
1.4 0.5 0
1.6 0.5 0
1.8 0.5 0
2 0.5 0
2.2 0.5 0
2.4 0.5 0
2.6 0.5 0
2.8 0.5 0
3 0.5 0
3.2 0.5 0
3.4 0.5 0
3.6 0.5 0
3.8 0.5 0
4 0.5 0
4.2 0.5 0
4.4 0.5 0
4.6 0.5 0
4.8 0.5 0
5 0.5 0
5.2 0.5 0
5.4 0.5 0
5.6 0.5 0
5.8 0.5 0
6 0.5 0
6.2 0.5 0
6.4 0.5 0
6.6 0.5 0
6.8 0.5 0
7 0.5 0
7.2 0.5 0
7.4 0.5 0
7.6 0.5 0
7.8 0.5 0
8 0.5 0
8.2 0.5 0
8.4 0.5 0
8.6 0.5 0
8.8 0.5 0
9 0.5 0
9.2 0.5 0
9.4 0.5 0
9.6 0.5 0
9.8 0.5 0
10 0.5 0
0 0.55 0
0.2 0.55 0
0.4 0.55 0
0.6 0.55 0
0.8 0.55 0
1 0.55 0
1.2 0.55 0
1.4 0.55 0
1.6 0.55 0
1.8 0.55 0
2 0.55 0
2.2 0.55 0
2.4 0.55 0
2.6 0.55 0
2.8 0.55 0
3 0.55 0
3.2 0.55 0
3.4 0.55 0
3.6 0.55 0
3.8 0.55 0
4 0.55 0
4.2 0.55 0
4.4 0.55 0
4.6 0.55 0
4.8 0.55 0
5 0.55 0
5.2 0.55 0
5.4 0.55 0
5.6 0.55 0
5.8 0.55 0
6 0.55 0
6.2 0.55 0
6.4 0.55 0
6.6 0.55 0
6.8 0.55 0
7 0.55 0
7.2 0.55 0
7.4 0.55 0
7.6 0.55 0
7.8 0.55 0
8 0.55 0
8.2 0.55 0
8.4 0.55 0
8.6 0.55 0
8.8 0.55 0
9 0.55 0
9.2 0.55 0
9.4 0.55 0
9.6 0.55 0
9.8 0.55 0
10 0.55 0
0 0.6 0
0.2 0.6 0
0.4 0.6 0
0.6 0.6 0
0.8 0.6 0
1 0.6 0
1.2 0.6 0
1.4 0.6 0
1.6 0.6 0
1.8 0.6 0
2 0.6 0
2.2 0.6 0
2.4 0.6 0
2.6 0.6 0
2.8 0.6 0
3 0.6 0
3.2 0.6 0
3.4 0.6 0
3.6 0.6 0
3.8 0.6 0
4 0.6 0
4.2 0.6 0
4.4 0.6 0
4.6 0.6 0
4.8 0.6 0
5 0.6 0
5.2 0.6 0
5.4 0.6 0
5.6 0.6 0
5.8 0.6 0
6 0.6 0
6.2 0.6 0
6.4 0.6 0
6.6 0.6 0
6.8 0.6 0
7 0.6 0
7.2 0.6 0
7.4 0.6 0
7.6 0.6 0
7.8 0.6 0
8 0.6 0
8.2 0.6 0
8.4 0.6 0
8.6 0.6 0
8.8 0.6 0
9 0.6 0
9.2 0.6 0
9.4 0.6 0
9.6 0.6 0
9.8 0.6 0
10 0.6 0
0 0.65 0
0.2 0.65 0
0.4 0.65 0
0.6 0.65 0
0.8 0.65 0
1 0.65 0
1.2 0.65 0
1.4 0.65 0
1.6 0.65 0
1.8 0.65 0
2 0.65 0
2.2 0.65 0
2.4 0.65 0
2.6 0.65 0
2.8 0.65 0
3 0.65 0
3.2 0.65 0
3.4 0.65 0
3.6 0.65 0
3.8 0.65 0
4 0.65 0
4.2 0.65 0
4.4 0.65 0
4.6 0.65 0
4.8 0.65 0
5 0.65 0
5.2 0.65 0
5.4 0.65 0
5.6 0.65 0
5.8 0.65 0
6 0.65 0
6.2 0.65 0
6.4 0.65 0
6.6 0.65 0
6.8 0.65 0
7 0.65 0
7.2 0.65 0
7.4 0.65 0
7.6 0.65 0
7.8 0.65 0
8 0.65 0
8.2 0.65 0
8.4 0.65 0
8.6 0.65 0
8.8 0.65 0
9 0.65 0
9.2 0.65 0
9.4 0.65 0
9.6 0.65 0
9.8 0.65 0
10 0.65 0
0 0.7 0
0.2 0.7 0
0.4 0.7 0
0.6 0.7 0
0.8 0.7 0
1 0.7 0
1.2 0.7 0
1.4 0.7 0
1.6 0.7 0
1.8 0.7 0
2 0.7 0
2.2 0.7 0
2.4 0.7 0
2.6 0.7 0
2.8 0.7 0
3 0.7 0
3.2 0.7 0
3.4 0.7 0
3.6 0.7 0
3.8 0.7 0
4 0.7 0
4.2 0.7 0
4.4 0.7 0
4.6 0.7 0
4.8 0.7 0
5 0.7 0
5.2 0.7 0
5.4 0.7 0
5.6 0.7 0
5.8 0.7 0
6 0.7 0
6.2 0.7 0
6.4 0.7 0
6.6 0.7 0
6.8 0.7 0
7 0.7 0
7.2 0.7 0
7.4 0.7 0
7.6 0.7 0
7.8 0.7 0
8 0.7 0
8.2 0.7 0
8.4 0.7 0
8.6 0.7 0
8.8 0.7 0
9 0.7 0
9.2 0.7 0
9.4 0.7 0
9.6 0.7 0
9.8 0.7 0
10 0.7 0
0 0.75 0
0.2 0.75 0
0.4 0.75 0
0.6 0.75 0
0.8 0.75 0
1 0.75 0
1.2 0.75 0
1.4 0.75 0
1.6 0.75 0
1.8 0.75 0
2 0.75 0
2.2 0.75 0
2.4 0.75 0
2.6 0.75 0
2.8 0.75 0
3 0.75 0
3.2 0.75 0
3.4 0.75 0
3.6 0.75 0
3.8 0.75 0
4 0.75 0
4.2 0.75 0
4.4 0.75 0
4.6 0.75 0
4.8 0.75 0
5 0.75 0
5.2 0.75 0
5.4 0.75 0
5.6 0.75 0
5.8 0.75 0
6 0.75 0
6.2 0.75 0
6.4 0.75 0
6.6 0.75 0
6.8 0.75 0
7 0.75 0
7.2 0.75 0
7.4 0.75 0
7.6 0.75 0
7.8 0.75 0
8 0.75 0
8.2 0.75 0
8.4 0.75 0
8.6 0.75 0
8.8 0.75 0
9 0.75 0
9.2 0.75 0
9.4 0.75 0
9.6 0.75 0
9.8 0.75 0
10 0.75 0
0 0.8 0
0.2 0.8 0
0.4 0.8 0
0.6 0.8 0
0.8 0.8 0
1 0.8 0
1.2 0.8 0
1.4 0.8 0
1.6 0.8 0
1.8 0.8 0
2 0.8 0
2.2 0.8 0
2.4 0.8 0
2.6 0.8 0
2.8 0.8 0
3 0.8 0
3.2 0.8 0
3.4 0.8 0
3.6 0.8 0
3.8 0.8 0
4 0.8 0
4.2 0.8 0
4.4 0.8 0
4.6 0.8 0
4.8 0.8 0
5 0.8 0
5.2 0.8 0
5.4 0.8 0
5.6 0.8 0
5.8 0.8 0
6 0.8 0
6.2 0.8 0
6.4 0.8 0
6.6 0.8 0
6.8 0.8 0
7 0.8 0
7.2 0.8 0
7.4 0.8 0
7.6 0.8 0
7.8 0.8 0
8 0.8 0
8.2 0.8 0
8.4 0.8 0
8.6 0.8 0
8.8 0.8 0
9 0.8 0
9.2 0.8 0
9.4 0.8 0
9.6 0.8 0
9.8 0.8 0
10 0.8 0
0 0.85 0
0.2 0.85 0
0.4 0.85 0
0.6 0.85 0
0.8 0.85 0
1 0.85 0
1.2 0.85 0
1.4 0.85 0
1.6 0.85 0
1.8 0.85 0
2 0.85 0
2.2 0.85 0
2.4 0.85 0
2.6 0.85 0
2.8 0.85 0
3 0.85 0
3.2 0.85 0
3.4 0.85 0
3.6 0.85 0
3.8 0.85 0
4 0.85 0
4.2 0.85 0
4.4 0.85 0
4.6 0.85 0
4.8 0.85 0
5 0.85 0
5.2 0.85 0
5.4 0.85 0
5.6 0.85 0
5.8 0.85 0
6 0.85 0
6.2 0.85 0
6.4 0.85 0
6.6 0.85 0
6.8 0.85 0
7 0.85 0
7.2 0.85 0
7.4 0.85 0
7.6 0.85 0
7.8 0.85 0
8 0.85 0
8.2 0.85 0
8.4 0.85 0
8.6 0.85 0
8.8 0.85 0
9 0.85 0
9.2 0.85 0
9.4 0.85 0
9.6 0.85 0
9.8 0.85 0
10 0.85 0
0 0.9 0
0.2 0.9 0
0.4 0.9 0
0.6 0.9 0
0.8 0.9 0
1 0.9 0
1.2 0.9 0
1.4 0.9 0
1.6 0.9 0
1.8 0.9 0
2 0.9 0
2.2 0.9 0
2.4 0.9 0
2.6 0.9 0
2.8 0.9 0
3 0.9 0
3.2 0.9 0
3.4 0.9 0
3.6 0.9 0
3.8 0.9 0
4 0.9 0
4.2 0.9 0
4.4 0.9 0
4.6 0.9 0
4.8 0.9 0
5 0.9 0
5.2 0.9 0
5.4 0.9 0
5.6 0.9 0
5.8 0.9 0
6 0.9 0
6.2 0.9 0
6.4 0.9 0
6.6 0.9 0
6.8 0.9 0
7 0.9 0
7.2 0.9 0
7.4 0.9 0
7.6 0.9 0
7.8 0.9 0
8 0.9 0
8.2 0.9 0
8.4 0.9 0
8.6 0.9 0
8.8 0.9 0
9 0.9 0
9.2 0.9 0
9.4 0.9 0
9.6 0.9 0
9.8 0.9 0
10 0.9 0
0 0.95 0
0.2 0.95 0
0.4 0.95 0
0.6 0.95 0
0.8 0.95 0
1 0.95 0
1.2 0.95 0
1.4 0.95 0
1.6 0.95 0
1.8 0.95 0
2 0.95 0
2.2 0.95 0
2.4 0.95 0
2.6 0.95 0
2.8 0.95 0
3 0.95 0
3.2 0.95 0
3.4 0.95 0
3.6 0.95 0
3.8 0.95 0
4 0.95 0
4.2 0.95 0
4.4 0.95 0
4.6 0.95 0
4.8 0.95 0
5 0.95 0
5.2 0.95 0
5.4 0.95 0
5.6 0.95 0
5.8 0.95 0
6 0.95 0
6.2 0.95 0
6.4 0.95 0
6.6 0.95 0
6.8 0.95 0
7 0.95 0
7.2 0.95 0
7.4 0.95 0
7.6 0.95 0
7.8 0.95 0
8 0.95 0
8.2 0.95 0
8.4 0.95 0
8.6 0.95 0
8.8 0.95 0
9 0.95 0
9.2 0.95 0
9.4 0.95 0
9.6 0.95 0
9.8 0.95 0
10 0.95 0
0 1 0
0.2 1 0
0.4 1 0
0.6 1 0
0.8 1 0
1 1 0
1.2 1 0
1.4 1 0
1.6 1 0
1.8 1 0
2 1 0
2.2 1 0
2.4 1 0
2.6 1 0
2.8 1 0
3 1 0
3.2 1 0
3.4 1 0
3.6 1 0
3.8 1 0
4 1 0
4.2 1 0
4.4 1 0
4.6 1 0
4.8 1 0
5 1 0
5.2 1 0
5.4 1 0
5.6 1 0
5.8 1 0
6 1 0
6.2 1 0
6.4 1 0
6.6 1 0
6.8 1 0
7 1 0
7.2 1 0
7.4 1 0
7.6 1 0
7.8 1 0
8 1 0
8.2 1 0
8.4 1 0
8.6 1 0
8.8 1 0
9 1 0
9.2 1 0
9.4 1 0
9.6 1 0
9.8 1 0
10 1 0

CELL_DATA 1000
SCALARS phi float
LOOKUP_TABLE default 
4.711
4.711
4.711
4.711
4.711
4.711
4.711
4.711
4.711
4.711
4.711
4.711
4.711
4.711
4.711
4.711
4.711
4.711
4.711
4.711
4.711
4.711
4.711
4.711
4.711
4.711
4.711
4.711
4.711
4.711
4.711
4.711
4.711
4.711
4.711
4.711
4.711
4.711
4.711
4.711
4.711
4.711
4.711
4.711
4.711
4.711
4.711
4.711
4.711
4.711
4.711
4.711
4.711
4.711
4.711
4.711
4.711
4.711
4.711
4.711
4.711
4.711
4.711
4.711
4.711
4.711
4.711
4.711
4.711
4.711
4.711
4.711
4.711
4.711
4.711
4.711
4.711
4.711
4.711
4.711
4.711
4.711
4.711
4.711
4.711
4.711
4.711
4.711
4.711
4.711
4.711
4.711
4.711
4.711
4.711
4.711
4.711
4.711
4.711
4.711
4.711
4.711
4.711
4.711
4.711
4.711
4.711
4.711
4.711
4.711
4.711
4.711
4.711
4.711
4.711
4.711
4.711
4.711
4.711
4.711
4.711
4.711
4.711
4.711
4.711
4.711
4.711
4.711
4.711
4.711
4.711
4.711
4.711
4.711
4.711
4.711
4.711
4.711
4.711
4.711
4.711
4.711
4.711
4.711
4.711
4.711
4.711
4.711
4.711
4.711
4.711
4.711
4.711
4.711
4.711
4.711
4.711
4.711
4.711
4.711
4.711
4.711
4.711
4.711
4.711
4.711
4.711
4.711
4.711
4.711
4.711
4.711
4.711
4.711
4.711
4.711
4.711
4.711
4.711
4.711
4.711
4.711
4.711
4.711
4.711
4.711
4.711
4.711
4.711
4.711
4.711
4.711
4.711
4.711
4.711
4.711
4.711
4.711
4.711
4.711
4.711
4.711
4.711
4.711
4.711
4.711
4.711
4.711
4.711
4.711
4.711
4.711
4.711
4.711
4.711
4.711
4.711
4.711
4.711
4.711
4.711
4.711
4.711
4.711
4.711
4.711
4.711
4.711
4.711
4.711
4.711
4.711
4.711
4.711
4.711
4.711
4.711
4.711
4.711
4.711
4.711
4.711
4.711
4.711
4.711
4.711
4.711
4.711
4.711
4.711
4.711
4.711
4.711
4.711
4.711
4.711
4.711
4.711
4.711
4.711
4.711
4.711
4.711
4.711
4.711
4.711
4.711
4.711
4.711
4.711
4.711
4.711
4.711
4.711
4.711
4.711
4.711
4.711
4.711
4.711
4.711
4.711
4.711
4.711
4.711
4.711
4.711
4.711
4.711
4.711
4.711
4.711
4.711
4.711
4.711
4.711
4.711
4.711
4.711
4.711
4.711
4.711
4.711
4.711
4.711
4.711
4.711
4.711
4.711
4.711
4.711
4.711
4.711
4.711
4.711
4.711
4.711
4.711
4.711
4.711
4.711
4.711
4.711
4.711
4.711
4.711
4.711
4.711
4.711
4.711
4.711
4.711
4.711
4.711
4.711
4.711
4.711
4.711
4.711
4.711
4.711
4.711
4.711
4.711
4.711
4.711
4.711
4.711
4.711
4.711
4.711
4.711
4.711
4.711
4.711
4.711
4.711
4.711
4.711
4.711
4.711
4.711
4.711
4.711
4.711
4.711
4.711
4.711
4.711
4.711
4.711
4.711
4.711
4.711
4.711
4.711
4.711
4.711
4.711
4.711
4.711
4.711
4.711
4.711
4.711
4.711
4.711
4.711
4.711
4.711
4.711
4.711
4.711
4.711
4.711
4.711
4.711
4.711
4.711
4.711
4.711
4.711
4.711
4.711
4.711
4.711
4.711
4.711
4.711
4.711
4.711
4.711
4.711
4.711
4.711
4.711
4.711
4.711
4.711
4.711
4.711
4.711
4.711
4.711
4.711
4.711
4.711
4.711
4.711
4.711
4.711
4.711
4.711
4.711
4.711
4.711
4.711
4.711
4.711
4.711
4.711
4.711
4.711
4.711
4.711
4.711
4.711
4.711
4.711
4.711
4.711
4.711
4.711
4.711
4.711
4.711
4.711
4.711
4.711
4.711
4.711
4.711
4.711
4.711
4.711
4.711
4.711
4.711
4.711
4.711
4.711
4.711
4.711
4.711
4.711
4.711
4.711
4.711
4.711
4.711
4.711
4.711
4.711
4.711
4.711
4.711
4.711
4.711
4.711
4.711
4.711
4.711
4.711
4.711
4.711
4.711
4.711
4.711
4.711
4.711
4.711
4.711
4.711
4.711
4.711
4.711
4.711
4.711
4.711
4.711
4.711
4.711
4.711
4.711
4.711
4.711
4.711
4.711
4.711
4.711
4.711
4.711
4.711
4.711
4.711
4.711
4.711
4.711
4.711
4.711
4.711
4.711
4.711
4.711
4.711
4.711
4.711
4.711
4.711
4.711
4.711
4.711
4.711
4.711
4.711
4.711
4.711
4.711
4.711
4.711
4.711
4.711
4.711
4.711
4.711
4.711
4.711
4.711
4.711
4.711
4.711
4.711
4.711
4.711
4.711
4.711
4.711
4.711
4.711
4.711
4.711
4.711
4.711
4.711
4.711
4.711
4.711
4.711
4.711
4.711
4.711
4.711
4.711
4.711
4.711
4.711
4.711
4.711
4.711
4.711
4.711
4.711
4.711
4.711
4.711
4.711
4.711
4.711
4.711
4.711
4.711
4.711
4.711
4.711
4.711
4.711
4.711
4.711
4.711
4.711
4.711
4.711
4.711
4.711
4.711
4.711
4.711
4.711
4.711
4.711
4.711
4.711
4.711
4.711
4.711
4.711
4.711
4.711
4.711
4.711
4.711
4.711
4.711
4.711
4.711
4.711
4.711
4.711
4.711
4.711
4.711
4.711
4.711
4.711
4.711
4.711
4.711
4.711
4.711
4.711
4.711
4.711
4.711
4.711
4.711
4.711
4.711
4.711
4.711
4.711
4.711
4.711
4.711
4.711
4.711
4.711
4.711
4.711
4.711
4.711
4.711
4.711
4.711
4.711
4.711
4.711
4.711
4.711
4.711
4.711
4.711
4.711
4.711
4.711
4.711
4.711
4.711
4.711
4.711
4.711
4.711
4.711
4.711
4.711
4.711
4.711
4.711
4.711
4.711
4.711
4.711
4.711
4.711
4.711
4.711
4.711
4.711
4.711
4.711
4.711
4.711
4.711
4.711
4.711
4.711
4.711
4.711
4.711
4.711
4.711
4.711
4.711
4.711
4.711
4.711
4.711
4.711
4.711
4.711
4.711
4.711
4.711
4.711
4.711
4.711
4.711
4.711
4.711
4.711
4.711
4.711
4.711
4.711
4.711
4.711
4.711
4.711
4.711
4.711
4.711
4.711
4.711
4.711
4.711
4.711
4.711
4.711
4.711
4.711
4.711
4.711
4.711
4.711
4.711
4.711
4.711
4.711
4.711
4.711
4.711
4.711
4.711
4.711
4.711
4.711
4.711
4.711
4.711
4.711
4.711
4.711
4.711
4.711
4.711
4.711
4.711
4.711
4.711
4.711
4.711
4.711
4.711
4.711
4.711
4.711
4.711
4.711
4.711
4.711
4.711
4.711
4.711
4.711
4.711
4.711
4.711
4.711
4.711
4.711
4.711
4.711
4.711
4.711
4.711
4.711
4.711
4.711
4.711
4.711
4.711
4.711
4.711
4.711
4.711
4.711
4.711
4.711
4.711
4.711
4.711
4.711
4.711
4.711
4.711
4.711
4.711
4.711
4.711
4.711
4.711
4.711
4.711
4.711
4.711
4.711
4.711
4.711
4.711
4.711
4.711
4.711
4.711
4.711
4.711
4.711
4.711
4.711
4.711
4.711
4.711
4.711
4.711
4.711
4.711
4.711
4.711
4.711
4.711
4.711
4.711
4.711
4.711
4.711
4.711
4.711
4.711
4.711
4.711
4.711
4.711
4.711
4.711
4.711
4.711
4.711
4.711
4.711
4.711
4.711
4.711
4.711
4.711
4.711
4.711
4.711
4.711
4.711
4.711
4.711
4.711
4.711
4.711
4.711
4.711
4.711
4.711
4.711
4.711
4.711
4.711
4.711
4.711
4.711
4.711
4.711
4.711
4.711
4.711
4.711
4.711
4.711
4.711
4.711
4.711
4.711
4.711
4.711
4.711
4.711
4.711
4.711
4.711
4.711
4.711
4.711
4.711
4.711
4.711
4.711
4.711
4.711
4.711
4.711
4.711
4.711
4.711
4.711
4.711
4.711
4.711
4.711
4.711
4.711
4.711
4.711
4.711
4.711
4.711
4.711
4.711
4.711
4.711
4.711
4.711
4.711
4.711
4.711
4.711
4.711
4.711
4.711
4.711
4.711
4.711
4.711
4.711
4.711
4.711
4.711
4.711
4.711
4.711
4.711
4.711
4.711
4.711
4.711
4.711
4.711
4.711
4.711
4.711
4.711
4.711
4.711
4.711
4.711
4.711
4.711
4.711

SCALARS p float
LOOKUP_TABLE default 
1309.55
1309.55
1288.97
1269.36
1252.08
1239.12
1234.14
1234.14
0
0
0
0
740.768
740.768
740.769
735.496
723.572
707
687.64
666.752
645.095
623.093
600.967
578.825
556.711
534.641
512.616
490.63
468.678
446.754
424.851
402.966
381.095
359.235
337.383
315.539
293.7
271.866
250.035
228.208
206.383
184.56
162.739
140.918
119.098
97.2788
75.4595
53.6402
31.8207
10
1309.55
1309.55
1288.97
1269.36
1252.08
1239.12
1234.14
1234.14
0
0
0
0
740.768
740.769
740.769
735.496
723.572
707
687.64
666.752
645.095
623.093
600.967
578.825
556.711
534.641
512.616
490.63
468.678
446.754
424.851
402.966
381.095
359.235
337.383
315.539
293.7
271.866
250.035
228.208
206.383
184.56
162.739
140.918
119.098
97.2788
75.4595
53.6402
31.8207
10
1309.72
1309.72
1289.04
1269.53
1252.41
1239.78
1235.59
1235.59
0
0
0
0
739.648
739.648
739.648
734.467
722.66
706.25
687.05
666.3
644.754
622.837
600.775
578.68
556.602
534.558
512.553
490.582
468.642
446.726
424.83
402.95
381.082
359.225
337.376
315.533
293.695
271.862
250.032
228.205
206.381
184.559
162.738
140.917
119.098
97.2784
75.4592
53.6399
31.8205
10
1309.8
1309.8
1288.99
1269.48
1252.35
1239.67
1235.79
1235.79
0
0
0
0
738.899
738.899
738.899
733.739
721.904
705.56
686.469
665.833
644.388
622.555
600.561
578.517
556.478
534.464
512.481
490.527
468.6
446.693
424.805
402.93
381.067
359.213
337.366
315.526
293.69
271.857
250.029
228.203
206.379
184.557
162.736
140.917
119.097
97.2779
75.4588
53.6397
31.8203
10
1309.69
1309.69
1288.78
1269.19
1251.82
1238.64
1234.12
1234.12
0
0
0
0
738.583
738.583
738.583
733.235
721.224
704.866
685.848
665.315
643.974
622.232
600.312
578.327
556.334
534.354
512.397
490.463
468.55
446.655
424.775
402.908
381.05
359.2
337.356
315.517
293.683
271.852
250.025
228.2
206.377
184.555
162.735
140.916
119.096
97.2774
75.4584
53.6394
31.8201
10
1309.39
1309.39
1288.43
1268.64
1250.82
1236.62
1229.9
1229.9
0
0
0
0
738.837
738.837
738.837
732.879
720.546
704.113
685.149
664.72
643.491
621.852
600.018
578.102
556.162
534.223
512.297
490.387
468.492
446.61
424.741
402.881
381.029
359.183
337.343
315.507
293.675
271.846
250.02
228.196
206.374
184.553
162.733
140.914
119.095
97.2766
75.4579
53.639
31.8199
10
1308.95
1308.95
1287.94
1267.86
1249.37
1233.62
1222.48
1222.48
1000.46
929.898
876.263
820.709
739.78
739.78
739.78
732.599
719.815
703.263
684.344
664.028
642.927
621.406
599.672
577.837
555.96
534.069
512.18
490.297
468.423
446.557
424.7
402.849
381.004
359.164
337.328
315.496
293.666
271.84
250.015
228.192
206.371
184.551
162.732
140.913
119.094
97.2757
75.4572
53.6385
31.8197
10
1308.41
1308.41
1287.32
1266.87
1247.52
1229.84
1213.54
1186.68
1000.46
929.898
876.263
820.709
749.024
744.271
740.898
732.336
719.001
702.3
683.426
663.235
642.279
620.895
599.276
577.534
555.728
533.893
512.045
490.194
468.344
446.496
424.653
402.813
380.976
359.142
337.311
315.483
293.656
271.832
250.009
228.187
206.367
184.548
162.729
140.911
119.093
97.2747
75.4565
53.638
31.8193
10
1307.81
1307.81
1286.62
1265.72
1245.38
1225.58
1204.22
1164.97
1012.97
937.125
880.199
823.924
760.945
749.043
742.209
732.077
718.106
701.229
682.404
662.353
641.56
620.327
598.836
577.197
555.472
533.697
511.896
490.08
468.256
446.429
424.601
402.773
380.945
359.118
337.293
315.468
293.645
271.823
250.002
228.182
206.363
184.545
162.727
140.909
119.091
97.2736
75.4556
53.6374
31.8189
10
1307.19
1307.19
1285.86
1264.48
1243.09
1221.13
1195.31
1149.18
1022.87
945.016
885.308
828.733
771.864
754.061
743.672
731.828
717.148
700.077
681.304
661.406
640.789
619.719
598.367
576.838
555.198
533.49
511.738
489.959
468.163
446.358
424.546
402.73
380.912
359.093
337.273
315.453
293.633
271.813
249.994
228.176
206.358
184.541
162.724
140.907
119.09
97.2724
75.4547
53.6368
31.8185
10
1306.61
1306.61
1285.09
1263.21
1240.78
1216.77
1187.28
1137.61
1030.39
952.812
891.11
834.435
781.647
759.066
745.217
731.591
716.158
698.88
680.164
660.428
639.996
619.097
597.887
576.472
554.92
533.278
511.576
489.836
468.069
446.285
424.49
402.687
380.878
359.066
337.252
315.437
293.621
271.804
249.987
228.17
206.354
184.538
162.722
140.905
119.088
97.2712
75.4538
53.6361
31.8181
10
1306.07
1306.07
1284.35
1261.99
1238.57
1212.74
1180.38
1129.16
1036.03
959.999
897.066
840.381
790.167
763.782
746.737
731.354
715.162
697.679
679.025
659.456
639.212
618.484
597.417
576.114
554.649
533.072
511.42
489.716
467.977
446.214
424.435
402.644
380.845
359.041
337.233
315.422
293.609
271.794
249.98
228.165
206.35
184.534
162.719
140.903
119.087
97.27
75.4529
53.6355
31.8177
10
1305.61
1305.61
1283.68
1260.87
1236.58
1209.22
1174.71
1123.08
1040.28
966.309
902.727
846.054
797.349
767.969
748.108
731.091
714.182
696.512
677.929
658.528
638.468
617.907
596.976
575.78
554.396
532.88
511.274
489.604
467.891
446.148
424.384
402.605
380.815
359.017
337.214
315.407
293.597
271.786
249.973
228.159
206.345
184.531
162.716
140.901
119.085
97.2689
75.4521
53.6349
31.8173
10
1305.24
1305.24
1283.11
1259.92
1234.9
1206.31
1170.28
1118.84
1043.52
971.641
907.778
851.086
803.172
771.451
749.22
730.771
713.232
695.412
676.91
657.674
637.79
617.384
596.579
575.479
554.169
532.709
511.143
489.505
467.815
446.089
424.339
402.57
380.788
358.996
337.198
315.394
293.587
271.778
249.967
228.155
206.342
184.528
162.714
140.899
119.084
97.2679
75.4513
53.6343
31.8169
10
1304.95
1304.95
1282.66
1259.18
1233.6
1204.1
1167.05
1116.06
1046.04
975.984
912.021
855.245
807.65
774.122
749.989
730.367
712.323
694.403
675.995
656.918
637.195
616.927
596.233
575.219
553.973
532.56
511.03
489.418
467.749
446.038
424.299
402.539
380.764
358.978
337.183
315.383
293.579
271.771
249.962
228.151
206.339
184.526
162.712
140.898
119.083
97.2669
75.4506
53.6338
31.8166
10
1304.71
1304.71
1282.35
1258.67
1232.7
1202.6
1164.94
1114.47
1048.05
979.379
915.355
858.407
810.835
775.942
750.369
729.863
711.461
693.501
675.197
656.268
636.689
616.542
595.942
575
553.808
532.435
510.935
489.345
467.693
445.995
424.265
402.513
380.744
358.962
337.171
315.374
293.572
271.766
249.957
228.147
206.336
184.524
162.71
140.896
119.082
97.2661
75.45
53.6333
31.8163
10
1304.5
1304.5
1282.17
1258.4
1232.22
1201.8
1163.87
1113.85
1049.69
981.906
917.756
860.549
812.808
776.92
750.343
729.251
710.645
692.706
674.517
655.725
636.269
616.224
595.702
574.82
553.671
532.331
510.856
489.284
467.645
445.958
424.237
402.491
380.726
358.949
337.161
315.366
293.565
271.761
249.954
228.144
206.334
184.522
162.709
140.895
119.081
97.2653
75.4493
53.6328
31.8161
10
1304.3
1304.3
1282.14
1258.35
1232.14
1201.68
1163.75
1114.11
1051.12
983.683
919.269
861.723
813.678
777.103
749.92
728.524
709.866
692.006
673.944
655.276
635.926
615.964
595.507
574.672
553.559
532.245
510.79
489.233
467.606
445.928
424.213
402.472
380.712
358.937
337.152
315.359
293.56
271.757
249.951
228.142
206.332
184.52
162.708
140.894
119.08
97.2646
75.4487
53.6324
31.8158
10
1304.16
1304.16
1282.22
1258.52
1232.43
1202.16
1164.5
1115.18
1052.49
984.866
920.01
862.022
813.569
776.558
749.113
727.671
709.102
691.382
673.457
654.906
635.648
615.755
595.349
574.551
553.466
532.174
510.734
489.19
467.572
445.901
424.192
402.456
380.699
358.927
337.144
315.353
293.556
271.753
249.948
228.14
206.33
184.519
162.707
140.893
119.079
97.264
75.4482
53.632
31.8155
10
1304.16
1304.16
1282.22
1258.52
1232.43
1202.16
1164.5
1115.18
1052.49
984.866
920.01
862.022
813.569
776.558
749.113
727.671
709.102
691.382
673.457
654.906
635.648
615.755
595.349
574.551
553.466
532.174
510.734
489.19
467.572
445.901
424.192
402.456
380.699
358.927
337.144
315.353
293.556
271.753
249.948
228.14
206.33
184.519
162.707
140.893
119.079
97.264
75.4482
53.632
31.8155
10

SCALARS  u float
LOOKUP_TABLE default 
0.898438
0.55415
0.573677
0.570197
0.552588
0.529362
0.637111
2.28503
0
0
0
0
-1.44128
-0.0730012
0.171726
0.279952
0.360742
0.421699
0.467213
0.501133
0.526566
0.545863
0.560727
0.572371
0.581646
0.589151
0.595313
0.600437
0.604747
0.608411
0.611554
0.614276
0.616652
0.618745
0.620602
0.622264
0.623762
0.625123
0.626368
0.627516
0.628581
0.629576
0.63051
0.631393
0.632229
0.633023
0.633778
0.634484
0.635071
0.635071
3.18751
2.82565
2.85757
2.82307
2.72732
2.56981
2.66436
6.02816
0
0
0
0
-3.37761
0.273976
1.09764
1.54373
1.89456
2.16387
2.36632
2.51731
2.63006
2.7149
2.77946
2.82927
2.86824
2.89916
2.92402
2.94426
2.96091
2.97475
2.98638
2.99623
3.00467
3.01195
3.0183
3.02388
3.02884
3.03327
3.03728
3.04094
3.04429
3.0474
3.05029
3.05301
3.05557
3.05799
3.06028
3.06243
3.06423
3.06424
5.23342
4.88794
4.90102
4.84688
4.70754
4.46953
4.50015
8.02021
0
0
0
0
-4.07369
0.800569
2.02889
2.72909
3.28009
3.7088
4.03701
4.28632
4.47557
4.61986
4.73078
4.81693
4.8846
4.93839
4.98162
5.01676
5.0456
5.06951
5.08953
5.10644
5.12086
5.13328
5.14406
5.15351
5.16187
5.16934
5.17607
5.18219
5.18779
5.19297
5.19779
5.2023
5.20655
5.21057
5.21437
5.21793
5.22095
5.22097
7.0233
6.71018
6.70302
6.63809
6.48196
6.20697
6.14725
9.17193
0
0
0
0
-3.96445
1.57091
3.01576
3.88517
4.56665
5.10207
5.51877
5.84097
6.08964
6.28199
6.4316
6.54885
6.64155
6.71556
6.77521
6.82375
6.86364
6.89671
6.92439
6.94777
6.9677
6.98485
6.99974
7.01278
7.02432
7.03461
7.04389
7.05231
7.06003
7.06716
7.07379
7.08
7.08585
7.09137
7.09661
7.10154
7.10575
7.10578
8.55356
8.27573
8.25754
8.19068
8.03792
7.76286
7.62265
9.83424
0
0
0
0
-3.10352
2.63464
4.12212
5.06907
5.80842
6.39385
6.85607
7.21928
7.504
7.72734
7.90312
8.04222
8.15304
8.24202
8.31407
8.3729
8.42137
8.46166
8.49544
8.52403
8.54844
8.56948
8.58778
8.60384
8.61807
8.63078
8.64226
8.65269
8.66227
8.67112
8.67936
8.68709
8.69437
8.70127
8.70781
8.71397
8.7193
8.71934
9.82492
9.57844
9.55867
9.49825
9.36402
9.12107
8.94355
9.94936
0
0
0
0
-1.15908
4.03592
5.41316
6.33283
7.05189
7.62706
8.08783
8.45555
8.74814
8.98078
9.16606
9.31416
9.43317
9.52941
9.60781
9.67218
9.72546
9.76994
9.80741
9.83925
9.86655
9.89019
9.91083
9.92902
9.9452
9.95973
9.97287
9.98487
9.99592
10.0062
10.0157
10.0247
10.0332
10.0412
10.0489
10.0561
10.0624
10.0625
10.8393
10.6178
10.6029
10.5556
10.4509
10.2669
10.149
11.5032
5.31868
4.13462
3.66916
3.58891
3.09692
5.85984
6.93536
7.7068
8.32337
8.82695
9.2382
9.57225
9.84229
10.0601
10.2357
10.3777
10.4929
10.5869
10.6642
10.7281
10.7814
10.8263
10.8643
10.8969
10.9251
10.9497
10.9713
10.9905
11.0077
11.0232
11.0373
11.0503
11.0623
11.0735
11.084
11.0939
11.1033
11.1123
11.1208
11.1289
11.136
11.136
11.5987
11.3958
11.3892
11.3595
11.2913
11.1824
11.1976
12.4492
10.4317
8.82743
8.01001
7.73332
7.18639
8.0596
8.66744
9.17625
9.61537
9.99144
10.3089
10.5734
10.7917
10.9709
11.1177
11.238
11.337
11.4189
11.487
11.544
11.5922
11.6333
11.6686
11.6992
11.726
11.7497
11.7708
11.7897
11.8069
11.8225
11.8369
11.8502
11.8627
11.8743
11.8853
11.8958
11.9057
11.9152
11.9243
11.933
11.9406
11.9407
12.1043
11.9143
11.9175
11.9078
11.8798
11.8512
12.0043
13.1746
12.9813
12.035
11.3235
10.9726
10.4241
10.3543
10.4694
10.6614
10.8757
11.0844
11.2744
11.4408
11.5833
11.7039
11.8053
11.8905
11.9623
12.023
12.0747
12.1191
12.1575
12.1909
12.2204
12.2465
12.2698
12.2908
12.31
12.3274
12.3435
12.3584
12.3723
12.3853
12.3976
12.4093
12.4203
12.4309
12.4411
12.4508
12.4602
12.4691
12.4771
12.4771
12.357
12.175
12.1884
12.1997
12.2127
12.2619
12.5309
13.6212
14.1907
13.9255
13.543
13.274
12.7946
12.3586
12.1189
12.0227
12.0085
12.0359
12.0818
12.1337
12.1855
12.2344
12.2794
12.3201
12.357
12.3903
12.4205
12.448
12.4731
12.4961
12.5173
12.537
12.5552
12.5723
12.5883
12.6033
12.6175
12.6309
12.6437
12.6558
12.6675
12.6786
12.6894
12.6997
12.7097
12.7194
12.7287
12.7377
12.7457
12.7458
12.3573
12.1787
12.2021
12.2345
12.2875
12.408
12.7684
13.7886
14.653
14.8569
14.8077
14.6959
14.3355
13.8258
13.4024
13.0998
12.893
12.7531
12.6584
12.5946
12.5526
12.5261
12.5109
12.504
12.503
12.5065
12.513
12.5218
12.532
12.5433
12.5551
12.5673
12.5796
12.5919
12.6041
12.6161
12.6278
12.6393
12.6505
12.6614
12.672
12.6823
12.6924
12.7022
12.7117
12.721
12.7301
12.7388
12.7467
12.7467
12.1051
11.9254
11.9584
12.0113
12.1024
12.2862
12.7175
13.6819
14.6429
15.1244
15.325
15.3658
15.1307
14.6654
14.1802
13.7578
13.4133
13.1395
12.9251
12.7593
12.6326
12.5372
12.4665
12.4152
12.379
12.3544
12.3387
12.3296
12.3257
12.3256
12.3283
12.3332
12.3395
12.347
12.3553
12.364
12.3731
12.3824
12.3918
12.4012
12.4105
12.4198
12.4289
12.4379
12.4468
12.4555
12.464
12.4723
12.4798
12.4797
11.5999
11.4141
11.4564
11.529
11.6554
11.8942
12.3802
13.3028
14.2796
14.9094
15.267
15.4161
15.278
14.8806
14.3923
13.9119
13.4815
13.1148
12.8125
12.5693
12.3775
12.2287
12.1148
12.0289
11.965
11.9182
11.8847
11.8613
11.8458
11.8364
11.8315
11.8301
11.8313
11.8345
11.8392
11.845
11.8516
11.8588
11.8664
11.8742
11.8822
11.8902
11.8983
11.9064
11.9144
11.9223
11.9302
11.9378
11.9446
11.9446
10.841
10.6429
10.6947
10.786
10.944
11.2288
11.756
12.6464
13.6059
14.302
14.7384
14.9413
14.8559
14.5066
14.029
13.5235
13.047
12.6269
12.2728
11.9838
11.7534
11.573
11.4336
11.3271
11.2465
11.1862
11.1416
11.1091
11.0861
11.0704
11.0602
11.0544
11.0518
11.0518
11.0538
11.0572
11.0617
11.067
11.0729
11.0792
11.0859
11.0927
11.0997
11.1068
11.1138
11.1209
11.1279
11.1347
11.1408
11.1408
9.82701
9.60934
9.67158
9.78005
9.96405
10.2838
10.8377
11.6979
12.6216
13.3273
13.7798
13.9846
13.9064