# vtk DataFile Version 3.0
vtk output781
ASCII
DATASET STRUCTURED_GRID
DIMENSIONS 51 21 1
POINTS 1071 float
0 0 0
0.2 0 0
0.4 0 0
0.6 0 0
0.8 0 0
1 0 0
1.2 0 0
1.4 0 0
1.6 0 0
1.8 0 0
2 0 0
2.2 0 0
2.4 0 0
2.6 0 0
2.8 0 0
3 0 0
3.2 0 0
3.4 0 0
3.6 0 0
3.8 0 0
4 0 0
4.2 0 0
4.4 0 0
4.6 0 0
4.8 0 0
5 0 0
5.2 0 0
5.4 0 0
5.6 0 0
5.8 0 0
6 0 0
6.2 0 0
6.4 0 0
6.6 0 0
6.8 0 0
7 0 0
7.2 0 0
7.4 0 0
7.6 0 0
7.8 0 0
8 0 0
8.2 0 0
8.4 0 0
8.6 0 0
8.8 0 0
9 0 0
9.2 0 0
9.4 0 0
9.6 0 0
9.8 0 0
10 0 0
0 0.05 0
0.2 0.05 0
0.4 0.05 0
0.6 0.05 0
0.8 0.05 0
1 0.05 0
1.2 0.05 0
1.4 0.05 0
1.6 0.05 0
1.8 0.05 0
2 0.05 0
2.2 0.05 0
2.4 0.05 0
2.6 0.05 0
2.8 0.05 0
3 0.05 0
3.2 0.05 0
3.4 0.05 0
3.6 0.05 0
3.8 0.05 0
4 0.05 0
4.2 0.05 0
4.4 0.05 0
4.6 0.05 0
4.8 0.05 0
5 0.05 0
5.2 0.05 0
5.4 0.05 0
5.6 0.05 0
5.8 0.05 0
6 0.05 0
6.2 0.05 0
6.4 0.05 0
6.6 0.05 0
6.8 0.05 0
7 0.05 0
7.2 0.05 0
7.4 0.05 0
7.6 0.05 0
7.8 0.05 0
8 0.05 0
8.2 0.05 0
8.4 0.05 0
8.6 0.05 0
8.8 0.05 0
9 0.05 0
9.2 0.05 0
9.4 0.05 0
9.6 0.05 0
9.8 0.05 0
10 0.05 0
0 0.1 0
0.2 0.1 0
0.4 0.1 0
0.6 0.1 0
0.8 0.1 0
1 0.1 0
1.2 0.1 0
1.4 0.1 0
1.6 0.1 0
1.8 0.1 0
2 0.1 0
2.2 0.1 0
2.4 0.1 0
2.6 0.1 0
2.8 0.1 0
3 0.1 0
3.2 0.1 0
3.4 0.1 0
3.6 0.1 0
3.8 0.1 0
4 0.1 0
4.2 0.1 0
4.4 0.1 0
4.6 0.1 0
4.8 0.1 0
5 0.1 0
5.2 0.1 0
5.4 0.1 0
5.6 0.1 0
5.8 0.1 0
6 0.1 0
6.2 0.1 0
6.4 0.1 0
6.6 0.1 0
6.8 0.1 0
7 0.1 0
7.2 0.1 0
7.4 0.1 0
7.6 0.1 0
7.8 0.1 0
8 0.1 0
8.2 0.1 0
8.4 0.1 0
8.6 0.1 0
8.8 0.1 0
9 0.1 0
9.2 0.1 0
9.4 0.1 0
9.6 0.1 0
9.8 0.1 0
10 0.1 0
0 0.15 0
0.2 0.15 0
0.4 0.15 0
0.6 0.15 0
0.8 0.15 0
1 0.15 0
1.2 0.15 0
1.4 0.15 0
1.6 0.15 0
1.8 0.15 0
2 0.15 0
2.2 0.15 0
2.4 0.15 0
2.6 0.15 0
2.8 0.15 0
3 0.15 0
3.2 0.15 0
3.4 0.15 0
3.6 0.15 0
3.8 0.15 0
4 0.15 0
4.2 0.15 0
4.4 0.15 0
4.6 0.15 0
4.8 0.15 0
5 0.15 0
5.2 0.15 0
5.4 0.15 0
5.6 0.15 0
5.8 0.15 0
6 0.15 0
6.2 0.15 0
6.4 0.15 0
6.6 0.15 0
6.8 0.15 0
7 0.15 0
7.2 0.15 0
7.4 0.15 0
7.6 0.15 0
7.8 0.15 0
8 0.15 0
8.2 0.15 0
8.4 0.15 0
8.6 0.15 0
8.8 0.15 0
9 0.15 0
9.2 0.15 0
9.4 0.15 0
9.6 0.15 0
9.8 0.15 0
10 0.15 0
0 0.2 0
0.2 0.2 0
0.4 0.2 0
0.6 0.2 0
0.8 0.2 0
1 0.2 0
1.2 0.2 0
1.4 0.2 0
1.6 0.2 0
1.8 0.2 0
2 0.2 0
2.2 0.2 0
2.4 0.2 0
2.6 0.2 0
2.8 0.2 0
3 0.2 0
3.2 0.2 0
3.4 0.2 0
3.6 0.2 0
3.8 0.2 0
4 0.2 0
4.2 0.2 0
4.4 0.2 0
4.6 0.2 0
4.8 0.2 0
5 0.2 0
5.2 0.2 0
5.4 0.2 0
5.6 0.2 0
5.8 0.2 0
6 0.2 0
6.2 0.2 0
6.4 0.2 0
6.6 0.2 0
6.8 0.2 0
7 0.2 0
7.2 0.2 0
7.4 0.2 0
7.6 0.2 0
7.8 0.2 0
8 0.2 0
8.2 0.2 0
8.4 0.2 0
8.6 0.2 0
8.8 0.2 0
9 0.2 0
9.2 0.2 0
9.4 0.2 0
9.6 0.2 0
9.8 0.2 0
10 0.2 0
0 0.25 0
0.2 0.25 0
0.4 0.25 0
0.6 0.25 0
0.8 0.25 0
1 0.25 0
1.2 0.25 0
1.4 0.25 0
1.6 0.25 0
1.8 0.25 0
2 0.25 0
2.2 0.25 0
2.4 0.25 0
2.6 0.25 0
2.8 0.25 0
3 0.25 0
3.2 0.25 0
3.4 0.25 0
3.6 0.25 0
3.8 0.25 0
4 0.25 0
4.2 0.25 0
4.4 0.25 0
4.6 0.25 0
4.8 0.25 0
5 0.25 0
5.2 0.25 0
5.4 0.25 0
5.6 0.25 0
5.8 0.25 0
6 0.25 0
6.2 0.25 0
6.4 0.25 0
6.6 0.25 0
6.8 0.25 0
7 0.25 0
7.2 0.25 0
7.4 0.25 0
7.6 0.25 0
7.8 0.25 0
8 0.25 0
8.2 0.25 0
8.4 0.25 0
8.6 0.25 0
8.8 0.25 0
9 0.25 0
9.2 0.25 0
9.4 0.25 0
9.6 0.25 0
9.8 0.25 0
10 0.25 0
0 0.3 0
0.2 0.3 0
0.4 0.3 0
0.6 0.3 0
0.8 0.3 0
1 0.3 0
1.2 0.3 0
1.4 0.3 0
1.6 0.3 0
1.8 0.3 0
2 0.3 0
2.2 0.3 0
2.4 0.3 0
2.6 0.3 0
2.8 0.3 0
3 0.3 0
3.2 0.3 0
3.4 0.3 0
3.6 0.3 0
3.8 0.3 0
4 0.3 0
4.2 0.3 0
4.4 0.3 0
4.6 0.3 0
4.8 0.3 0
5 0.3 0
5.2 0.3 0
5.4 0.3 0
5.6 0.3 0
5.8 0.3 0
6 0.3 0
6.2 0.3 0
6.4 0.3 0
6.6 0.3 0
6.8 0.3 0
7 0.3 0
7.2 0.3 0
7.4 0.3 0
7.6 0.3 0
7.8 0.3 0
8 0.3 0
8.2 0.3 0
8.4 0.3 0
8.6 0.3 0
8.8 0.3 0
9 0.3 0
9.2 0.3 0
9.4 0.3 0
9.6 0.3 0
9.8 0.3 0
10 0.3 0
0 0.35 0
0.2 0.35 0
0.4 0.35 0
0.6 0.35 0
0.8 0.35 0
1 0.35 0
1.2 0.35 0
1.4 0.35 0
1.6 0.35 0
1.8 0.35 0
2 0.35 0
2.2 0.35 0
2.4 0.35 0
2.6 0.35 0
2.8 0.35 0
3 0.35 0
3.2 0.35 0
3.4 0.35 0
3.6 0.35 0
3.8 0.35 0
4 0.35 0
4.2 0.35 0
4.4 0.35 0
4.6 0.35 0
4.8 0.35 0
5 0.35 0
5.2 0.35 0
5.4 0.35 0
5.6 0.35 0
5.8 0.35 0
6 0.35 0
6.2 0.35 0
6.4 0.35 0
6.6 0.35 0
6.8 0.35 0
7 0.35 0
7.2 0.35 0
7.4 0.35 0
7.6 0.35 0
7.8 0.35 0
8 0.35 0
8.2 0.35 0
8.4 0.35 0
8.6 0.35 0
8.8 0.35 0
9 0.35 0
9.2 0.35 0
9.4 0.35 0
9.6 0.35 0
9.8 0.35 0
10 0.35 0
0 0.4 0
0.2 0.4 0
0.4 0.4 0
0.6 0.4 0
0.8 0.4 0
1 0.4 0
1.2 0.4 0
1.4 0.4 0
1.6 0.4 0
1.8 0.4 0
2 0.4 0
2.2 0.4 0
2.4 0.4 0
2.6 0.4 0
2.8 0.4 0
3 0.4 0
3.2 0.4 0
3.4 0.4 0
3.6 0.4 0
3.8 0.4 0
4 0.4 0
4.2 0.4 0
4.4 0.4 0
4.6 0.4 0
4.8 0.4 0
5 0.4 0
5.2 0.4 0
5.4 0.4 0
5.6 0.4 0
5.8 0.4 0
6 0.4 0
6.2 0.4 0
6.4 0.4 0
6.6 0.4 0
6.8 0.4 0
7 0.4 0
7.2 0.4 0
7.4 0.4 0
7.6 0.4 0
7.8 0.4 0
8 0.4 0
8.2 0.4 0
8.4 0.4 0
8.6 0.4 0
8.8 0.4 0
9 0.4 0
9.2 0.4 0
9.4 0.4 0
9.6 0.4 0
9.8 0.4 0
10 0.4 0
0 0.45 0
0.2 0.45 0
0.4 0.45 0
0.6 0.45 0
0.8 0.45 0
1 0.45 0
1.2 0.45 0
1.4 0.45 0
1.6 0.45 0
1.8 0.45 0
2 0.45 0
2.2 0.45 0
2.4 0.45 0
2.6 0.45 0
2.8 0.45 0
3 0.45 0
3.2 0.45 0
3.4 0.45 0
3.6 0.45 0
3.8 0.45 0
4 0.45 0
4.2 0.45 0
4.4 0.45 0
4.6 0.45 0
4.8 0.45 0
5 0.45 0
5.2 0.45 0
5.4 0.45 0
5.6 0.45 0
5.8 0.45 0
6 0.45 0
6.2 0.45 0
6.4 0.45 0
6.6 0.45 0
6.8 0.45 0
7 0.45 0
7.2 0.45 0
7.4 0.45 0
7.6 0.45 0
7.8 0.45 0
8 0.45 0
8.2 0.45 0
8.4 0.45 0
8.6 0.45 0
8.8 0.45 0
9 0.45 0
9.2 0.45 0
9.4 0.45 0
9.6 0.45 0
9.8 0.45 0
10 0.45 0
0 0.5 0
0.2 0.5 0
0.4 0.5 0
0.6 0.5 0
0.8 0.5 0
1 0.5 0
1.2 0.5 0
1.4 0.5 0
1.6 0.5 0
1.8 0.5 0
2 0.5 0
2.2 0.5 0
2.4 0.5 0
2.6 0.5 0
2.8 0.5 0
3 0.5 0
3.2 0.5 0
3.4 0.5 0
3.6 0.5 0
3.8 0.5 0
4 0.5 0
4.2 0.5 0
4.4 0.5 0
4.6 0.5 0
4.8 0.5 0
5 0.5 0
5.2 0.5 0
5.4 0.5 0
5.6 0.5 0
5.8 0.5 0
6 0.5 0
6.2 0.5 0
6.4 0.5 0
6.6 0.5 0
6.8 0.5 0
7 0.5 0
7.2 0.5 0
7.4 0.5 0
7.6 0.5 0
7.8 0.5 0
8 0.5 0
8.2 0.5 0
8.4 0.5 0
8.6 0.5 0
8.8 0.5 0
9 0.5 0
9.2 0.5 0
9.4 0.5 0
9.6 0.5 0
9.8 0.5 0
10 0.5 0
0 0.55 0
0.2 0.55 0
0.4 0.55 0
0.6 0.55 0
0.8 0.55 0
1 0.55 0
1.2 0.55 0
1.4 0.55 0
1.6 0.55 0
1.8 0.55 0
2 0.55 0
2.2 0.55 0
2.4 0.55 0
2.6 0.55 0
2.8 0.55 0
3 0.55 0
3.2 0.55 0
3.4 0.55 0
3.6 0.55 0
3.8 0.55 0
4 0.55 0
4.2 0.55 0
4.4 0.55 0
4.6 0.55 0
4.8 0.55 0
5 0.55 0
5.2 0.55 0
5.4 0.55 0
5.6 0.55 0
5.8 0.55 0
6 0.55 0
6.2 0.55 0
6.4 0.55 0
6.6 0.55 0
6.8 0.55 0
7 0.55 0
7.2 0.55 0
7.4 0.55 0
7.6 0.55 0
7.8 0.55 0
8 0.55 0
8.2 0.55 0
8.4 0.55 0
8.6 0.55 0
8.8 0.55 0
9 0.55 0
9.2 0.55 0
9.4 0.55 0
9.6 0.55 0
9.8 0.55 0
10 0.55 0
0 0.6 0
0.2 0.6 0
0.4 0.6 0
0.6 0.6 0
0.8 0.6 0
1 0.6 0
1.2 0.6 0
1.4 0.6 0
1.6 0.6 0
1.8 0.6 0
2 0.6 0
2.2 0.6 0
2.4 0.6 0
2.6 0.6 0
2.8 0.6 0
3 0.6 0
3.2 0.6 0
3.4 0.6 0
3.6 0.6 0
3.8 0.6 0
4 0.6 0
4.2 0.6 0
4.4 0.6 0
4.6 0.6 0
4.8 0.6 0
5 0.6 0
5.2 0.6 0
5.4 0.6 0
5.6 0.6 0
5.8 0.6 0
6 0.6 0
6.2 0.6 0
6.4 0.6 0
6.6 0.6 0
6.8 0.6 0
7 0.6 0
7.2 0.6 0
7.4 0.6 0
7.6 0.6 0
7.8 0.6 0
8 0.6 0
8.2 0.6 0
8.4 0.6 0
8.6 0.6 0
8.8 0.6 0
9 0.6 0
9.2 0.6 0
9.4 0.6 0
9.6 0.6 0
9.8 0.6 0
10 0.6 0
0 0.65 0
0.2 0.65 0
0.4 0.65 0
0.6 0.65 0
0.8 0.65 0
1 0.65 0
1.2 0.65 0
1.4 0.65 0
1.6 0.65 0
1.8 0.65 0
2 0.65 0
2.2 0.65 0
2.4 0.65 0
2.6 0.65 0
2.8 0.65 0
3 0.65 0
3.2 0.65 0
3.4 0.65 0
3.6 0.65 0
3.8 0.65 0
4 0.65 0
4.2 0.65 0
4.4 0.65 0
4.6 0.65 0
4.8 0.65 0
5 0.65 0
5.2 0.65 0
5.4 0.65 0
5.6 0.65 0
5.8 0.65 0
6 0.65 0
6.2 0.65 0
6.4 0.65 0
6.6 0.65 0
6.8 0.65 0
7 0.65 0
7.2 0.65 0
7.4 0.65 0
7.6 0.65 0
7.8 0.65 0
8 0.65 0
8.2 0.65 0
8.4 0.65 0
8.6 0.65 0
8.8 0.65 0
9 0.65 0
9.2 0.65 0
9.4 0.65 0
9.6 0.65 0
9.8 0.65 0
10 0.65 0
0 0.7 0
0.2 0.7 0
0.4 0.7 0
0.6 0.7 0
0.8 0.7 0
1 0.7 0
1.2 0.7 0
1.4 0.7 0
1.6 0.7 0
1.8 0.7 0
2 0.7 0
2.2 0.7 0
2.4 0.7 0
2.6 0.7 0
2.8 0.7 0
3 0.7 0
3.2 0.7 0
3.4 0.7 0
3.6 0.7 0
3.8 0.7 0
4 0.7 0
4.2 0.7 0
4.4 0.7 0
4.6 0.7 0
4.8 0.7 0
5 0.7 0
5.2 0.7 0
5.4 0.7 0
5.6 0.7 0
5.8 0.7 0
6 0.7 0
6.2 0.7 0
6.4 0.7 0
6.6 0.7 0
6.8 0.7 0
7 0.7 0
7.2 0.7 0
7.4 0.7 0
7.6 0.7 0
7.8 0.7 0
8 0.7 0
8.2 0.7 0
8.4 0.7 0
8.6 0.7 0
8.8 0.7 0
9 0.7 0
9.2 0.7 0
9.4 0.7 0
9.6 0.7 0
9.8 0.7 0
10 0.7 0
0 0.75 0
0.2 0.75 0
0.4 0.75 0
0.6 0.75 0
0.8 0.75 0
1 0.75 0
1.2 0.75 0
1.4 0.75 0
1.6 0.75 0
1.8 0.75 0
2 0.75 0
2.2 0.75 0
2.4 0.75 0
2.6 0.75 0
2.8 0.75 0
3 0.75 0
3.2 0.75 0
3.4 0.75 0
3.6 0.75 0
3.8 0.75 0
4 0.75 0
4.2 0.75 0
4.4 0.75 0
4.6 0.75 0
4.8 0.75 0
5 0.75 0
5.2 0.75 0
5.4 0.75 0
5.6 0.75 0
5.8 0.75 0
6 0.75 0
6.2 0.75 0
6.4 0.75 0
6.6 0.75 0
6.8 0.75 0
7 0.75 0
7.2 0.75 0
7.4 0.75 0
7.6 0.75 0
7.8 0.75 0
8 0.75 0
8.2 0.75 0
8.4 0.75 0
8.6 0.75 0
8.8 0.75 0
9 0.75 0
9.2 0.75 0
9.4 0.75 0
9.6 0.75 0
9.8 0.75 0
10 0.75 0
0 0.8 0
0.2 0.8 0
0.4 0.8 0
0.6 0.8 0
0.8 0.8 0
1 0.8 0
1.2 0.8 0
1.4 0.8 0
1.6 0.8 0
1.8 0.8 0
2 0.8 0
2.2 0.8 0
2.4 0.8 0
2.6 0.8 0
2.8 0.8 0
3 0.8 0
3.2 0.8 0
3.4 0.8 0
3.6 0.8 0
3.8 0.8 0
4 0.8 0
4.2 0.8 0
4.4 0.8 0
4.6 0.8 0
4.8 0.8 0
5 0.8 0
5.2 0.8 0
5.4 0.8 0
5.6 0.8 0
5.8 0.8 0
6 0.8 0
6.2 0.8 0
6.4 0.8 0
6.6 0.8 0
6.8 0.8 0
7 0.8 0
7.2 0.8 0
7.4 0.8 0
7.6 0.8 0
7.8 0.8 0
8 0.8 0
8.2 0.8 0
8.4 0.8 0
8.6 0.8 0
8.8 0.8 0
9 0.8 0
9.2 0.8 0
9.4 0.8 0
9.6 0.8 0
9.8 0.8 0
10 0.8 0
0 0.85 0
0.2 0.85 0
0.4 0.85 0
0.6 0.85 0
0.8 0.85 0
1 0.85 0
1.2 0.85 0
1.4 0.85 0
1.6 0.85 0
1.8 0.85 0
2 0.85 0
2.2 0.85 0
2.4 0.85 0
2.6 0.85 0
2.8 0.85 0
3 0.85 0
3.2 0.85 0
3.4 0.85 0
3.6 0.85 0
3.8 0.85 0
4 0.85 0
4.2 0.85 0
4.4 0.85 0
4.6 0.85 0
4.8 0.85 0
5 0.85 0
5.2 0.85 0
5.4 0.85 0
5.6 0.85 0
5.8 0.85 0
6 0.85 0
6.2 0.85 0
6.4 0.85 0
6.6 0.85 0
6.8 0.85 0
7 0.85 0
7.2 0.85 0
7.4 0.85 0
7.6 0.85 0
7.8 0.85 0
8 0.85 0
8.2 0.85 0
8.4 0.85 0
8.6 0.85 0
8.8 0.85 0
9 0.85 0
9.2 0.85 0
9.4 0.85 0
9.6 0.85 0
9.8 0.85 0
10 0.85 0
0 0.9 0
0.2 0.9 0
0.4 0.9 0
0.6 0.9 0
0.8 0.9 0
1 0.9 0
1.2 0.9 0
1.4 0.9 0
1.6 0.9 0
1.8 0.9 0
2 0.9 0
2.2 0.9 0
2.4 0.9 0
2.6 0.9 0
2.8 0.9 0
3 0.9 0
3.2 0.9 0
3.4 0.9 0
3.6 0.9 0
3.8 0.9 0
4 0.9 0
4.2 0.9 0
4.4 0.9 0
4.6 0.9 0
4.8 0.9 0
5 0.9 0
5.2 0.9 0
5.4 0.9 0
5.6 0.9 0
5.8 0.9 0
6 0.9 0
6.2 0.9 0
6.4 0.9 0
6.6 0.9 0
6.8 0.9 0
7 0.9 0
7.2 0.9 0
7.4 0.9 0
7.6 0.9 0
7.8 0.9 0
8 0.9 0
8.2 0.9 0
8.4 0.9 0
8.6 0.9 0
8.8 0.9 0
9 0.9 0
9.2 0.9 0
9.4 0.9 0
9.6 0.9 0
9.8 0.9 0
10 0.9 0
0 0.95 0
0.2 0.95 0
0.4 0.95 0
0.6 0.95 0
0.8 0.95 0
1 0.95 0
1.2 0.95 0
1.4 0.95 0
1.6 0.95 0
1.8 0.95 0
2 0.95 0
2.2 0.95 0
2.4 0.95 0
2.6 0.95 0
2.8 0.95 0
3 0.95 0
3.2 0.95 0
3.4 0.95 0
3.6 0.95 0
3.8 0.95 0
4 0.95 0
4.2 0.95 0
4.4 0.95 0
4.6 0.95 0
4.8 0.95 0
5 0.95 0
5.2 0.95 0
5.4 0.95 0
5.6 0.95 0
5.8 0.95 0
6 0.95 0
6.2 0.95 0
6.4 0.95 0
6.6 0.95 0
6.8 0.95 0
7 0.95 0
7.2 0.95 0
7.4 0.95 0
7.6 0.95 0
7.8 0.95 0
8 0.95 0
8.2 0.95 0
8.4 0.95 0
8.6 0.95 0
8.8 0.95 0
9 0.95 0
9.2 0.95 0
9.4 0.95 0
9.6 0.95 0
9.8 0.95 0
10 0.95 0
0 1 0
0.2 1 0
0.4 1 0
0.6 1 0
0.8 1 0
1 1 0
1.2 1 0
1.4 1 0
1.6 1 0
1.8 1 0
2 1 0
2.2 1 0
2.4 1 0
2.6 1 0
2.8 1 0
3 1 0
3.2 1 0
3.4 1 0
3.6 1 0
3.8 1 0
4 1 0
4.2 1 0
4.4 1 0
4.6 1 0
4.8 1 0
5 1 0
5.2 1 0
5.4 1 0
5.6 1 0
5.8 1 0
6 1 0
6.2 1 0
6.4 1 0
6.6 1 0
6.8 1 0
7 1 0
7.2 1 0
7.4 1 0
7.6 1 0
7.8 1 0
8 1 0
8.2 1 0
8.4 1 0
8.6 1 0
8.8 1 0
9 1 0
9.2 1 0
9.4 1 0
9.6 1 0
9.8 1 0
10 1 0

CELL_DATA 1000
SCALARS phi float
LOOKUP_TABLE default 
4.711
4.711
4.711
4.711
4.711
4.711
4.711
4.711
4.711
4.711
4.711
4.711
4.711
4.711
4.711
4.711
4.711
4.711
4.711
4.711
4.711
4.711
4.711
4.711
4.711
4.711
4.711
4.711
4.711
4.711
4.711
4.711
4.711
4.711
4.711
4.711
4.711
4.711
4.711
4.711
4.711
4.711
4.711
4.711
4.711
4.711
4.711
4.711
4.711
4.711
4.711
4.711
4.711
4.711
4.711
4.711
4.711
4.711
4.711
4.711
4.711
4.711
4.711
4.711
4.711
4.711
4.711
4.711
4.711
4.711
4.711
4.711
4.711
4.711
4.711
4.711
4.711
4.711
4.711
4.711
4.711
4.711
4.711
4.711
4.711
4.711
4.711
4.711
4.711
4.711
4.711
4.711
4.711
4.711
4.711
4.711
4.711
4.711
4.711
4.711
4.711
4.711
4.711
4.711
4.711
4.711
4.711
4.711
4.711
4.711
4.711
4.711
4.711
4.711
4.711
4.711
4.711
4.711
4.711
4.711
4.711
4.711
4.711
4.711
4.711
4.711
4.711
4.711
4.711
4.711
4.711
4.711
4.711
4.711
4.711
4.711
4.711
4.711
4.711
4.711
4.711
4.711
4.711
4.711
4.711
4.711
4.711
4.711
4.711
4.711
4.711
4.711
4.711
4.711
4.711
4.711
4.711
4.711
4.711
4.711
4.711
4.711
4.711
4.711
4.711
4.711
4.711
4.711
4.711
4.711
4.711
4.711
4.711
4.711
4.711
4.711
4.711
4.711
4.711
4.711
4.711
4.711
4.711
4.711
4.711
4.711
4.711
4.711
4.711
4.711
4.711
4.711
4.711
4.711
4.711
4.711
4.711
4.711
4.711
4.711
4.711
4.711
4.711
4.711
4.711
4.711
4.711
4.711
4.711
4.711
4.711
4.711
4.711
4.711
4.711
4.711
4.711
4.711
4.711
4.711
4.711
4.711
4.711
4.711
4.711
4.711
4.711
4.711
4.711
4.711
4.711
4.711
4.711
4.711
4.711
4.711
4.711
4.711
4.711
4.711
4.711
4.711
4.711
4.711
4.711
4.711
4.711
4.711
4.711
4.711
4.711
4.711
4.711
4.711
4.711
4.711
4.711
4.711
4.711
4.711
4.711
4.711
4.711
4.711
4.711
4.711
4.711
4.711
4.711
4.711
4.711
4.711
4.711
4.711
4.711
4.711
4.711
4.711
4.711
4.711
4.711
4.711
4.711
4.711
4.711
4.711
4.711
4.711
4.711
4.711
4.711
4.711
4.711
4.711
4.711
4.711
4.711
4.711
4.711
4.711
4.711
4.711
4.711
4.711
4.711
4.711
4.711
4.711
4.711
4.711
4.711
4.711
4.711
4.711
4.711
4.711
4.711
4.711
4.711
4.711
4.711
4.711
4.711
4.711
4.711
4.711
4.711
4.711
4.711
4.711
4.711
4.711
4.711
4.711
4.711
4.711
4.711
4.711
4.711
4.711
4.711
4.711
4.711
4.711
4.711
4.711
4.711
4.711
4.711
4.711
4.711
4.711
4.711
4.711
4.711
4.711
4.711
4.711
4.711
4.711
4.711
4.711
4.711
4.711
4.711
4.711
4.711
4.711
4.711
4.711
4.711
4.711
4.711
4.711
4.711
4.711
4.711
4.711
4.711
4.711
4.711
4.711
4.711
4.711
4.711
4.711
4.711
4.711
4.711
4.711
4.711
4.711
4.711
4.711
4.711
4.711
4.711
4.711
4.711
4.711
4.711
4.711
4.711
4.711
4.711
4.711
4.711
4.711
4.711
4.711
4.711
4.711
4.711
4.711
4.711
4.711
4.711
4.711
4.711
4.711
4.711
4.711
4.711
4.711
4.711
4.711
4.711
4.711
4.711
4.711
4.711
4.711
4.711
4.711
4.711
4.711
4.711
4.711
4.711
4.711
4.711
4.711
4.711
4.711
4.711
4.711
4.711
4.711
4.711
4.711
4.711
4.711
4.711
4.711
4.711
4.711
4.711
4.711
4.711
4.711
4.711
4.711
4.711
4.711
4.711
4.711
4.711
4.711
4.711
4.711
4.711
4.711
4.711
4.711
4.711
4.711
4.711
4.711
4.711
4.711
4.711
4.711
4.711
4.711
4.711
4.711
4.711
4.711
4.711
4.711
4.711
4.711
4.711
4.711
4.711
4.711
4.711
4.711
4.711
4.711
4.711
4.711
4.711
4.711
4.711
4.711
4.711
4.711
4.711
4.711
4.711
4.711
4.711
4.711
4.711
4.711
4.711
4.711
4.711
4.711
4.711
4.711
4.711
4.711
4.711
4.711
4.711
4.711
4.711
4.711
4.711
4.711
4.711
4.711
4.711
4.711
4.711
4.711
4.711
4.711
4.711
4.711
4.711
4.711
4.711
4.711
4.711
4.711
4.711
4.711
4.711
4.711
4.711
4.711
4.711
4.711
4.711
4.711
4.711
4.711
4.711
4.711
4.711
4.711
4.711
4.711
4.711
4.711
4.711
4.711
4.711
4.711
4.711
4.711
4.711
4.711
4.711
4.711
4.711
4.711
4.711
4.711
4.711
4.711
4.711
4.711
4.711
4.711
4.711
4.711
4.711
4.711
4.711
4.711
4.711
4.711
4.711
4.711
4.711
4.711
4.711
4.711
4.711
4.711
4.711
4.711
4.711
4.711
4.711
4.711
4.711
4.711
4.711
4.711
4.711
4.711
4.711
4.711
4.711
4.711
4.711
4.711
4.711
4.711
4.711
4.711
4.711
4.711
4.711
4.711
4.711
4.711
4.711
4.711
4.711
4.711
4.711
4.711
4.711
4.711
4.711
4.711
4.711
4.711
4.711
4.711
4.711
4.711
4.711
4.711
4.711
4.711
4.711
4.711
4.711
4.711
4.711
4.711
4.711
4.711
4.711
4.711
4.711
4.711
4.711
4.711
4.711
4.711
4.711
4.711
4.711
4.711
4.711
4.711
4.711
4.711
4.711
4.711
4.711
4.711
4.711
4.711
4.711
4.711
4.711
4.711
4.711
4.711
4.711
4.711
4.711
4.711
4.711
4.711
4.711
4.711
4.711
4.711
4.711
4.711
4.711
4.711
4.711
4.711
4.711
4.711
4.711
4.711
4.711
4.711
4.711
4.711
4.711
4.711
4.711
4.711
4.711
4.711
4.711
4.711
4.711
4.711
4.711
4.711
4.711
4.711
4.711
4.711
4.711
4.711
4.711
4.711
4.711
4.711
4.711
4.711
4.711
4.711
4.711
4.711
4.711
4.711
4.711
4.711
4.711
4.711
4.711
4.711
4.711
4.711
4.711
4.711
4.711
4.711
4.711
4.711
4.711
4.711
4.711
4.711
4.711
4.711
4.711
4.711
4.711
4.711
4.711
4.711
4.711
4.711
4.711
4.711
4.711
4.711
4.711
4.711
4.711
4.711
4.711
4.711
4.711
4.711
4.711
4.711
4.711
4.711
4.711
4.711
4.711
4.711
4.711
4.711
4.711
4.711
4.711
4.711
4.711
4.711
4.711
4.711
4.711
4.711
4.711
4.711
4.711
4.711
4.711
4.711
4.711
4.711
4.711
4.711
4.711
4.711
4.711
4.711
4.711
4.711
4.711
4.711
4.711
4.711
4.711
4.711
4.711
4.711
4.711
4.711
4.711
4.711
4.711
4.711
4.711
4.711
4.711
4.711
4.711
4.711
4.711
4.711
4.711
4.711
4.711
4.711
4.711
4.711
4.711
4.711
4.711
4.711
4.711
4.711
4.711
4.711
4.711
4.711
4.711
4.711
4.711
4.711
4.711
4.711
4.711
4.711
4.711
4.711
4.711
4.711
4.711
4.711
4.711
4.711
4.711
4.711
4.711
4.711
4.711
4.711
4.711
4.711
4.711
4.711
4.711
4.711
4.711
4.711
4.711
4.711
4.711
4.711
4.711
4.711
4.711
4.711
4.711
4.711
4.711
4.711
4.711
4.711
4.711
4.711
4.711
4.711
4.711
4.711
4.711
4.711
4.711
4.711
4.711
4.711
4.711
4.711
4.711
4.711
4.711
4.711
4.711
4.711
4.711
4.711
4.711
4.711
4.711
4.711
4.711
4.711
4.711
4.711
4.711
4.711
4.711
4.711
4.711
4.711
4.711
4.711
4.711
4.711
4.711
4.711
4.711
4.711
4.711
4.711
4.711
4.711
4.711
4.711
4.711
4.711
4.711
4.711
4.711
4.711
4.711
4.711
4.711
4.711
4.711
4.711
4.711
4.711
4.711
4.711
4.711
4.711
4.711
4.711
4.711
4.711
4.711
4.711
4.711
4.711
4.711
4.711
4.711
4.711
4.711
4.711
4.711
4.711
4.711
4.711
4.711
4.711
4.711
4.711
4.711
4.711
4.711
4.711
4.711
4.711
4.711
4.711
4.711
4.711

SCALARS p float
LOOKUP_TABLE default 
1309.55
1309.55
1288.97
1269.36
1252.07
1239.12
1234.14
1234.14
0
0
0
0
740.764
740.764
740.764
735.491
723.566
706.995
687.636
666.751
645.096
623.096
600.971
578.828
556.712
534.639
512.609
490.621
468.667
446.743
424.843
402.963
381.097
359.241
337.392
315.547
293.706
271.867
250.031
228.199
206.371
184.549
162.73
140.915
119.101
97.2854
75.468
53.648
31.8254
10
1309.55
1309.55
1288.97
1269.36
1252.07
1239.12
1234.14
1234.14
0
0
0
0
740.764
740.764
740.764
735.491
723.566
706.995
687.636
666.751
645.096
623.096
600.971
578.828
556.712
534.639
512.609
490.621
468.667
446.743
424.843
402.963
381.097
359.241
337.392
315.547
293.706
271.867
250.031
228.199
206.371
184.549
162.73
140.915
119.101
97.2854
75.468
53.648
31.8254
10
1309.72
1309.72
1289.04
1269.53
1252.41
1239.77
1235.59
1235.59
0
0
0
0
739.643
739.643
739.643
734.462
722.655
706.245
687.047
666.299
644.755
622.84
600.779
578.684
556.603
534.556
512.546
490.572
468.63
446.715
424.822
402.946
381.084
359.231
337.384
315.541
293.701
271.863
250.028
228.197
206.37
184.547
162.729
140.914
119.1
97.2849
75.4677
53.6478
31.8252
10
1309.8
1309.8
1288.98
1269.48
1252.34
1239.66
1235.79
1235.79
0
0
0
0
738.893
738.893
738.893
733.733
721.899
705.555
686.466
665.832
644.39
622.559
600.565
578.521
556.48
534.462
512.474
490.517
468.588
446.682
424.797
402.927
381.069
359.22
337.375
315.534
293.696
271.859
250.025
228.194
206.368
184.546
162.728
140.913
119.099
97.2843
75.4673
53.6475
31.825
10
1309.68
1309.68
1288.78
1269.18
1251.82
1238.64
1234.11
1234.11
0
0
0
0
738.577
738.577
738.577
733.229
721.218
704.861
685.846
665.315
643.976
622.236
600.317
578.331
556.335
534.351
512.39
490.453
468.538
446.644
424.767
402.904
381.052
359.206
337.365
315.526
293.689
271.854
250.021
228.191
206.365
184.544
162.727
140.912
119.098
97.2837
75.4668
53.6472
31.8249
10
1309.39
1309.39
1288.43
1268.64
1250.82
1236.62
1229.9
1229.9
0
0
0
0
738.831
738.831
738.831
732.872
720.54
704.108
685.146
664.72
643.494
621.856
600.023
578.106
556.163
534.22
512.29
490.376
468.479
446.599
424.732
402.877
381.031
359.19
337.353
315.517
293.682
271.848
250.016
228.187
206.362
184.542
162.725
140.911
119.097
97.2829
75.4662
53.6468
31.8247
10
1308.95
1308.95
1287.93
1267.86
1249.36
1233.62
1222.48
1222.48
1000.46
929.898
876.263
820.708
739.774
739.774
739.774
732.592
719.809
703.259
684.342
664.028
642.929
621.411
599.678
577.841
555.961
534.066
512.172
490.286
468.41
446.546
424.691
402.846
381.006
359.171
337.338
315.505
293.673
271.841
250.011
228.183
206.359
184.539
162.723
140.909
119.096
97.282
75.4656
53.6463
31.8244
10
1308.4
1308.4
1287.32
1266.87
1247.51
1229.84
1213.54
1186.67
1000.46
929.898
876.263
820.708
749.018
744.265
740.892
732.33
718.995
702.295
683.424
663.235
642.282
620.9
599.281
577.538
555.729
533.89
512.038
490.183
468.331
446.485
424.644
402.809
380.978
359.149
337.321
315.492
293.663
271.833
250.004
228.178
206.355
184.536
162.721
140.907
119.095
97.281
75.4648
53.6458
31.8241
10
1307.8
1307.8
1286.61
1265.72
1245.38
1225.58
1204.22
1164.97
1012.97
937.125
880.199
823.923
760.94
749.037
742.202
732.071
718.1
701.224
682.402
662.353
641.563
620.332
598.842
577.201
555.473
533.694
511.888
490.069
468.244
446.417
424.592
402.769
380.947
359.125
337.302
315.478
293.651
271.824
249.998
228.173
206.351
184.533
162.718
140.905
119.093
97.2798
75.464
53.6452
31.8237
10
1307.19
1307.19
1285.86
1264.48
1243.09
1221.12
1195.31
1149.18
1022.87
945.016
885.308
828.732
771.86
754.055
743.666
731.822
717.142
700.072
681.302
661.406
640.792
619.724
598.373
576.842
555.199
533.486
511.73
489.948
468.151
446.346
424.537
402.727
380.914
359.1
337.282
315.462
293.639
271.815
249.99
228.167
206.347
184.53
162.715
140.903
119.092
97.2786
75.4631
53.6446
31.8233
10
1306.6
1306.6
1285.09
1263.21
1240.77
1216.77
1187.28
1137.61
1030.39
952.812
891.11
834.433
781.643
759.061
745.211
731.585
716.152
698.875
680.162
660.428
639.998
619.102
597.893
576.476
554.921
533.275
511.569
489.825
468.056
446.273
424.481
402.683
380.88
359.073
337.262
315.446
293.627
271.805
249.983
228.161
206.342
184.526
162.713
140.901
119.09
97.2773
75.4621
53.6439
31.8229
10
1306.07
1306.07
1284.35
1261.98
1238.56
1212.74
1180.38
1129.15
1036.03
959.998
897.066
840.38
790.163
763.777
746.731
731.348
715.157
697.674
679.023
659.456
639.214
618.489
597.423
576.118
554.65
533.069
511.412
489.705
467.964
446.202
424.426
402.641
380.848
359.048
337.242
315.431
293.615
271.796
249.976
228.156
206.338
184.523
162.71
140.899
119.088
97.2761
75.4612
53.6433
31.8225
10
1305.61
1305.61
1283.68
1260.87
1236.58
1209.21
1174.71
1123.07
1040.27
966.309
902.727
846.053
797.346
767.964
748.103
731.085
714.176
696.507
677.926
658.528
638.471
617.911
596.981
575.784
554.397
532.877
511.267
489.594
467.879
446.137
424.376
402.601
380.817
359.024
337.224
315.417
293.604
271.787
249.969
228.151
206.334
184.52
162.708
140.897
119.087
97.275
75.4603
53.6426
31.822
10
1305.24
1305.24
1283.1
1259.92
1234.9
1206.31
1170.28
1118.84
1043.52
971.641
907.778
851.085
803.169
771.446
749.215
730.765
713.227
695.407
676.907
657.674
637.792
617.388
596.583
575.483
554.17
532.706
511.136
489.494
467.803
446.078
424.33
402.566
380.789
359.003
337.207
315.403
293.594
271.78
249.963
228.146
206.33
184.517
162.706
140.896
119.086
97.2739
75.4595
53.6419
31.8216
10
1304.94
1304.94
1282.66
1259.18
1233.59
1204.09
1167.04
1116.06
1046.04
975.984
912.02
855.244
807.648
774.119
749.985
730.361
712.317
694.399
675.992
656.917
637.197
616.931
596.238
575.223
553.974
532.558
511.024
489.408
467.737
446.027
424.291
402.535
380.765
358.984
337.192
315.392
293.585
271.773
249.958
228.142
206.327
184.515
162.704
140.894
119.084
97.2729
75.4586
53.6413
31.8212
10
1304.71
1304.71
1282.34
1258.67
1232.7
1202.59
1164.94
1114.46
1048.05
979.379
915.355
858.407
810.833
775.939
750.364
729.858
711.455
693.496
675.194
656.267
636.69
616.545
595.947
575.004
553.809
532.433
510.929
489.336
467.681
445.984
424.257
402.509
380.745
358.968
337.18
315.382
293.577
271.767
249.953
228.139
206.325
184.513
162.702
140.893
119.083
97.2719
75.4578
53.6406
31.8207
10
1304.5
1304.5
1282.17
1258.39
1232.22
1201.8
1163.86
1113.85
1049.69
981.905
917.755
860.549
812.806
776.917
750.339
729.246
710.64
692.701
674.514
655.723
636.27
616.226
595.706
574.823
553.672
532.329
510.85
489.275
467.635
445.948
424.229
402.487
380.728
358.954
337.169
315.374
293.571
271.762
249.95
228.136
206.323
184.511
162.701
140.892
119.082
97.2711
75.457
53.64
31.8203
10
1304.29
1304.29
1282.13
1258.35
1232.14
1201.67
1163.74
1114.1
1051.12
983.682
919.269
861.722
813.677
777.101
749.916
728.519
709.86
692.002
673.94
655.274
635.927
615.967
595.51
574.675
553.56
532.243
510.784
489.225
467.595
445.918
424.206
402.469
380.713
358.942
337.16
315.367
293.565
271.758
249.947
228.134
206.322
184.51
162.7
140.891
119.082
97.2703
75.4563
53.6394
31.8199
10
1304.16
1304.16
1282.22
1258.51
1232.43
1202.16
1164.5
1115.18
1052.48
984.866
920.01
862.022
813.568
776.556
749.11
727.667
709.097
691.377
673.454
654.904
635.648
615.757
595.352
574.554
553.467
532.172
510.729
489.182
467.562
445.891
424.185
402.452
380.7
358.932
337.152
315.36
293.56
271.754
249.944
228.132
206.32
184.509
162.699
140.89
119.081
97.2696
75.4557
53.6389
31.8196
10
1304.16
1304.16
1282.22
1258.51
1232.43
1202.16
1164.5
1115.18
1052.48
984.866
920.01
862.022
813.568
776.556
749.11
727.667
709.097
691.377
673.454
654.904
635.648
615.757
595.352
574.554
553.467
532.172
510.729
489.182
467.562
445.891
424.185
402.452
380.7
358.932
337.152
315.36
293.56
271.754
249.944
228.132
206.32
184.509
162.699
140.89
119.081
97.2696
75.4557
53.6389
31.8196
10

SCALARS  u float
LOOKUP_TABLE default 
0.898438
0.55415
0.573677
0.570197
0.552589
0.529362
0.637111
2.28503
0
0
0
0
-1.44128
-0.0730013
0.171726
0.279953
0.360743
0.421699
0.467212
0.501132
0.526566
0.545863
0.560728
0.572372
0.581648
0.589154
0.595316
0.600438
0.604746
0.608407
0.611546
0.614264
0.616636
0.618724
0.620574
0.622227
0.623712
0.625055
0.626276
0.627392
0.628418
0.629366
0.630246
0.631067
0.631836
0.632557
0.633236
0.633866
0.634386
0.634386
3.18751
2.82565
2.85758
2.82307
2.72732
2.56981
2.66436
6.02816
0
0
0
0
-3.3776
0.273976
1.09765
1.54373
1.89456
2.16388
2.36632
2.5173
2.63006
2.7149
2.77947
2.82927
2.86825
2.89917
2.92403
2.94426
2.96091
2.97474
2.98636
2.9962
3.00462
3.01189
3.01822
3.02378
3.0287
3.03308
3.03702
3.04058
3.04382
3.04679
3.04953
3.05206
3.05442
3.05663
3.0587
3.06062
3.06222
3.06223
5.23342
4.88794
4.90102
4.84688
4.70754
4.46953
4.50015
8.0202
0
0
0
0
-4.07368
0.800569
2.02889
2.7291
3.2801
3.7088
4.03702
4.28633
4.47557
4.61987
4.73079
4.81694
4.88461
4.9384
4.98163
5.01676
5.04559
5.0695
5.08951
5.10641
5.12081
5.1332
5.14394
5.15335
5.16165
5.16903
5.17565
5.18162
5.18705
5.19202
5.19659
5.20082
5.20475
5.20842
5.21185
5.21504
5.21772
5.21774
7.0233
6.71018
6.70302
6.63809
6.48196
6.20697
6.14725
9.17193
0
0
0
0
-3.96445
1.57091
3.01577
3.88518
4.56666
5.10207
5.51878
5.84098
6.08964
6.282
6.43161
6.54886
6.64156
6.71557
6.77522
6.82376
6.86364
6.8967
6.92437
6.94773
6.96764
6.98475
6.99959
7.01257
7.02403
7.03421
7.04334
7.05159
7.05908
7.06593
7.07224
7.07808
7.0835
7.08856
7.09329
7.0977
7.10144
7.10147
8.55356
8.27573
8.25754
8.19068
8.03793
7.76286
7.62265
9.83424
0
0
0
0
-3.10352
2.63464
4.12213
5.06907
5.80842
6.39385
6.85608
7.21929
7.50401
7.72735
7.90313
8.04223
8.15305
8.24204
8.31408
8.37291
8.42137
8.46165
8.49542
8.52398
8.54837
8.56937
8.58761
8.6036
8.61773
8.63032
8.64163
8.65185
8.66116
8.66969
8.67754
8.68482
8.69159
8.69791
8.70384
8.70936
8.7141
8.71414
9.82492
9.57844
9.55867
9.49825
9.36402
9.12107
8.94355
9.94936
0
0
0
0
-1.15907
4.03593
5.41317
6.33283
7.05189
7.62707
8.08784
8.45556
8.74815
8.98079
9.16607
9.31417
9.43318
9.52943
9.60782
9.67218
9.72546
9.76993
9.80738
9.8392
9.86648
9.89007
9.91065
9.92877
9.94485
9.95923
9.97219
9.98395
9.9947
10.0046
10.0137
10.0222
10.0301
10.0375
10.0444
10.0509
10.0565
10.0566
10.8393
10.6178
10.6029
10.5556
10.4509
10.2669
10.149
11.5032
5.31868
4.13462
3.66917
3.58892
3.09693
5.85984
6.93536
7.7068
8.32338
8.82696
9.23821
9.57225
9.8423
10.0601
10.2357
10.3777
10.4929
10.5869
10.6642
10.7281
10.7814
10.8263
10.8643
10.8969
10.925
10.9495
10.9711
10.9902
11.0073
11.0227
11.0366
11.0494
11.0611
11.0719
11.0819
11.0912
11.1
11.1082
11.1159
11.1232
11.1295
11.1295
11.5987
11.3958
11.3892
11.3595
11.2913
11.1824
11.1976
12.4492
10.4317
8.82743
8.01002
7.73332
7.18639
8.0596
8.66745
9.17625
9.61538
9.99145
10.3089
10.5734
10.7917
10.9709
11.1177
11.238
11.3371
11.4189
11.487
11.544
11.5922
11.6333
11.6686
11.6992
11.726
11.7496
11.7706
11.7894
11.8065
11.822
11.8362
11.8492
11.8613
11.8726
11.8831
11.893
11.9022
11.911
11.9192
11.927
11.9338
11.9338
12.1043
11.9143
11.9175
11.9078
11.8798
11.8512
12.0043
13.1746
12.9813
12.035
11.3235
10.9726
10.4241
10.3543
10.4694
10.6614
10.8757
11.0844
11.2744
11.4408
11.5833
11.7039
11.8053
11.8905
11.9623
12.023
12.0748
12.1191
12.1575
12.1909
12.2204
12.2464
12.2697
12.2907
12.3098
12.3272
12.3431
12.3579
12.3716
12.3843
12.3963
12.4075
12.418
12.428
12.4375
12.4464
12.4549
12.4629
12.47
12.47
12.357
12.175
12.1884
12.1997
12.2127
12.2619
12.5309
13.6212
14.1907
13.9255
13.5431
13.274
12.7946
12.3586
12.1189
12.0227
12.0085
12.0359
12.0818
12.1337
12.1855
12.2344
12.2794
12.3202
12.357
12.3904
12.4206
12.448
12.4731
12.4961
12.5173
12.5369
12.5552
12.5722
12.5881
12.603
12.6171
12.6304
12.6429
12.6548
12.6661
12.6768
12.687
12.6968
12.7061
12.7149
12.7234
12.7314
12.7385
12.7385
12.3573
12.1787
12.2021
12.2345
12.2875
12.408
12.7684
13.7886
14.653
14.8569
14.8077
14.696
14.3355
13.8259
13.4024
13.0998
12.8931
12.7531
12.6584
12.5947
12.5526
12.5261
12.5109
12.504
12.5031
12.5065
12.513
12.5218
12.532
12.5433
12.5551
12.5673
12.5796
12.5918
12.6039
12.6158
12.6274
12.6388
12.6497
12.6603
12.6706
12.6805
12.69
12.6992
12.708
12.7165
12.7247
12.7325
12.7394
12.7394
12.1051
11.9254
11.9584
12.0113
12.1024
12.2862
12.7175
13.682
14.6429
15.1244
15.325
15.3658
15.1307
14.6654
14.1802
13.7579
13.4133
13.1395
12.9251
12.7593
12.6326
12.5372
12.4665
12.4153
12.3791
12.3544
12.3387
12.3296
12.3257
12.3256
12.3283
12.3331
12.3395
12.3469
12.3551
12.3638
12.3727
12.3819
12.391
12.4001
12.4091
12.418
12.4266
12.435
12.4432
12.4511
12.4587
12.4661
12.4726
12.4726
11.5999
11.4141
11.4564
11.529
11.6554
11.8942
12.3802
13.3028
14.2796
14.9094
15.267
15.4161
15.278
14.8806
14.3923
13.9119
13.4815
13.1148
12.8125
12.5693
12.3775
12.2287
12.1148
12.0289
11.965
11.9182
11.8847
11.8613
11.8458
11.8364
11.8314
11.83
11.8312
11.8344
11.8391
11.8448
11.8513
11.8583
11.8656
11.8732
11.8808
11.8885
11.896
11.9035
11.9109
11.918
11.925
11.9317
11.9377
11.9377
10.841
10.6429
10.6947
10.786
10.944
11.2288
11.756
12.6464
13.606
14.302
14.7384
14.9413
14.8559
14.5066
14.029
13.5235
13.047
12.6269
12.2728
11.9838
11.7534
11.573
11.4336
11.3271
11.2465
11.1862
11.1416
11.1091
11.0861
11.0704
11.0602
11.0543
11.0518
11.0517
11.0536
11.0569
11.0613
11.0665
11.0722
11.0783
11.0846
11.091
11.0975
11.104
11.1104
11.1168
11.1229
11.1289
11.1343
11.1342
9.82701
9.60934
9.67158
9.78005
9.96406
10.2838
10.8377
11.6979
12.6216
13.3273
13.7798
13.9846
13.9064