# vtk DataFile Version 3.0
vtk output333
ASCII
DATASET STRUCTURED_GRID
DIMENSIONS 36 26 1
POINTS 936 float
0 0 0
0.171429 0 0
0.342857 0 0
0.514286 0 0
0.685714 0 0
0.857143 0 0
1.02857 0 0
1.2 0 0
1.37143 0 0
1.54286 0 0
1.71429 0 0
1.88571 0 0
2.05714 0 0
2.22857 0 0
2.4 0 0
2.57143 0 0
2.74286 0 0
2.91429 0 0
3.08571 0 0
3.25714 0 0
3.42857 0 0
3.6 0 0
3.77143 0 0
3.94286 0 0
4.11429 0 0
4.28571 0 0
4.45714 0 0
4.62857 0 0
4.8 0 0
4.97143 0 0
5.14286 0 0
5.31429 0 0
5.48571 0 0
5.65714 0 0
5.82857 0 0
6 0 0
0 0.2 0
0.171429 0.2 0
0.342857 0.2 0
0.514286 0.2 0
0.685714 0.2 0
0.857143 0.2 0
1.02857 0.2 0
1.2 0.2 0
1.37143 0.2 0
1.54286 0.2 0
1.71429 0.2 0
1.88571 0.2 0
2.05714 0.2 0
2.22857 0.2 0
2.4 0.2 0
2.57143 0.2 0
2.74286 0.2 0
2.91429 0.2 0
3.08571 0.2 0
3.25714 0.2 0
3.42857 0.2 0
3.6 0.2 0
3.77143 0.2 0
3.94286 0.2 0
4.11429 0.2 0
4.28571 0.2 0
4.45714 0.2 0
4.62857 0.2 0
4.8 0.2 0
4.97143 0.2 0
5.14286 0.2 0
5.31429 0.2 0
5.48571 0.2 0
5.65714 0.2 0
5.82857 0.2 0
6 0.2 0
0 0.4 0
0.171429 0.4 0
0.342857 0.4 0
0.514286 0.4 0
0.685714 0.4 0
0.857143 0.4 0
1.02857 0.4 0
1.2 0.4 0
1.37143 0.4 0
1.54286 0.4 0
1.71429 0.4 0
1.88571 0.4 0
2.05714 0.4 0
2.22857 0.4 0
2.4 0.4 0
2.57143 0.4 0
2.74286 0.4 0
2.91429 0.4 0
3.08571 0.4 0
3.25714 0.4 0
3.42857 0.4 0
3.6 0.4 0
3.77143 0.4 0
3.94286 0.4 0
4.11429 0.4 0
4.28571 0.4 0
4.45714 0.4 0
4.62857 0.4 0
4.8 0.4 0
4.97143 0.4 0
5.14286 0.4 0
5.31429 0.4 0
5.48571 0.4 0
5.65714 0.4 0
5.82857 0.4 0
6 0.4 0
0 0.6 0
0.171429 0.6 0
0.342857 0.6 0
0.514286 0.6 0
0.685714 0.6 0
0.857143 0.6 0
1.02857 0.6 0
1.2 0.6 0
1.37143 0.6 0
1.54286 0.6 0
1.71429 0.6 0
1.88571 0.6 0
2.05714 0.6 0
2.22857 0.6 0
2.4 0.6 0
2.57143 0.6 0
2.74286 0.6 0
2.91429 0.6 0
3.08571 0.6 0
3.25714 0.6 0
3.42857 0.6 0
3.6 0.6 0
3.77143 0.6 0
3.94286 0.6 0
4.11429 0.6 0
4.28571 0.6 0
4.45714 0.6 0
4.62857 0.6 0
4.8 0.6 0
4.97143 0.6 0
5.14286 0.6 0
5.31429 0.6 0
5.48571 0.6 0
5.65714 0.6 0
5.82857 0.6 0
6 0.6 0
0 0.8 0
0.171429 0.8 0
0.342857 0.8 0
0.514286 0.8 0
0.685714 0.8 0
0.857143 0.8 0
1.02857 0.8 0
1.2 0.8 0
1.37143 0.8 0
1.54286 0.8 0
1.71429 0.8 0
1.88571 0.8 0
2.05714 0.8 0
2.22857 0.8 0
2.4 0.8 0
2.57143 0.8 0
2.74286 0.8 0
2.91429 0.8 0
3.08571 0.8 0
3.25714 0.8 0
3.42857 0.8 0
3.6 0.8 0
3.77143 0.8 0
3.94286 0.8 0
4.11429 0.8 0
4.28571 0.8 0
4.45714 0.8 0
4.62857 0.8 0
4.8 0.8 0
4.97143 0.8 0
5.14286 0.8 0
5.31429 0.8 0
5.48571 0.8 0
5.65714 0.8 0
5.82857 0.8 0
6 0.8 0
0 1 0
0.171429 1 0
0.342857 1 0
0.514286 1 0
0.685714 1 0
0.857143 1 0
1.02857 1 0
1.2 1 0
1.37143 1 0
1.54286 1 0
1.71429 1 0
1.88571 1 0
2.05714 1 0
2.22857 1 0
2.4 1 0
2.57143 1 0
2.74286 1 0
2.91429 1 0
3.08571 1 0
3.25714 1 0
3.42857 1 0
3.6 1 0
3.77143 1 0
3.94286 1 0
4.11429 1 0
4.28571 1 0
4.45714 1 0
4.62857 1 0
4.8 1 0
4.97143 1 0
5.14286 1 0
5.31429 1 0
5.48571 1 0
5.65714 1 0
5.82857 1 0
6 1 0
0 1.2 0
0.171429 1.2 0
0.342857 1.2 0
0.514286 1.2 0
0.685714 1.2 0
0.857143 1.2 0
1.02857 1.2 0
1.2 1.2 0
1.37143 1.2 0
1.54286 1.2 0
1.71429 1.2 0
1.88571 1.2 0
2.05714 1.2 0
2.22857 1.2 0
2.4 1.2 0
2.57143 1.2 0
2.74286 1.2 0
2.91429 1.2 0
3.08571 1.2 0
3.25714 1.2 0
3.42857 1.2 0
3.6 1.2 0
3.77143 1.2 0
3.94286 1.2 0
4.11429 1.2 0
4.28571 1.2 0
4.45714 1.2 0
4.62857 1.2 0
4.8 1.2 0
4.97143 1.2 0
5.14286 1.2 0
5.31429 1.2 0
5.48571 1.2 0
5.65714 1.2 0
5.82857 1.2 0
6 1.2 0
0 1.4 0
0.171429 1.4 0
0.342857 1.4 0
0.514286 1.4 0
0.685714 1.4 0
0.857143 1.4 0
1.02857 1.4 0
1.2 1.4 0
1.37143 1.4 0
1.54286 1.4 0
1.71429 1.4 0
1.88571 1.4 0
2.05714 1.4 0
2.22857 1.4 0
2.4 1.4 0
2.57143 1.4 0
2.74286 1.4 0
2.91429 1.4 0
3.08571 1.4 0
3.25714 1.4 0
3.42857 1.4 0
3.6 1.4 0
3.77143 1.4 0
3.94286 1.4 0
4.11429 1.4 0
4.28571 1.4 0
4.45714 1.4 0
4.62857 1.4 0
4.8 1.4 0
4.97143 1.4 0
5.14286 1.4 0
5.31429 1.4 0
5.48571 1.4 0
5.65714 1.4 0
5.82857 1.4 0
6 1.4 0
0 1.6 0
0.171429 1.6 0
0.342857 1.6 0
0.514286 1.6 0
0.685714 1.6 0
0.857143 1.6 0
1.02857 1.6 0
1.2 1.6 0
1.37143 1.6 0
1.54286 1.6 0
1.71429 1.6 0
1.88571 1.6 0
2.05714 1.6 0
2.22857 1.6 0
2.4 1.6 0
2.57143 1.6 0
2.74286 1.6 0
2.91429 1.6 0
3.08571 1.6 0
3.25714 1.6 0
3.42857 1.6 0
3.6 1.6 0
3.77143 1.6 0
3.94286 1.6 0
4.11429 1.6 0
4.28571 1.6 0
4.45714 1.6 0
4.62857 1.6 0
4.8 1.6 0
4.97143 1.6 0
5.14286 1.6 0
5.31429 1.6 0
5.48571 1.6 0
5.65714 1.6 0
5.82857 1.6 0
6 1.6 0
0 1.8 0
0.171429 1.8 0
0.342857 1.8 0
0.514286 1.8 0
0.685714 1.8 0
0.857143 1.8 0
1.02857 1.8 0
1.2 1.8 0
1.37143 1.8 0
1.54286 1.8 0
1.71429 1.8 0
1.88571 1.8 0
2.05714 1.8 0
2.22857 1.8 0
2.4 1.8 0
2.57143 1.8 0
2.74286 1.8 0
2.91429 1.8 0
3.08571 1.8 0
3.25714 1.8 0
3.42857 1.8 0
3.6 1.8 0
3.77143 1.8 0
3.94286 1.8 0
4.11429 1.8 0
4.28571 1.8 0
4.45714 1.8 0
4.62857 1.8 0
4.8 1.8 0
4.97143 1.8 0
5.14286 1.8 0
5.31429 1.8 0
5.48571 1.8 0
5.65714 1.8 0
5.82857 1.8 0
6 1.8 0
0 2 0
0.171429 2 0
0.342857 2 0
0.514286 2 0
0.685714 2 0
0.857143 2 0
1.02857 2 0
1.2 2 0
1.37143 2 0
1.54286 2 0
1.71429 2 0
1.88571 2 0
2.05714 2 0
2.22857 2 0
2.4 2 0
2.57143 2 0
2.74286 2 0
2.91429 2 0
3.08571 2 0
3.25714 2 0
3.42857 2 0
3.6 2 0
3.77143 2 0
3.94286 2 0
4.11429 2 0
4.28571 2 0
4.45714 2 0
4.62857 2 0
4.8 2 0
4.97143 2 0
5.14286 2 0
5.31429 2 0
5.48571 2 0
5.65714 2 0
5.82857 2 0
6 2 0
0 2.2 0
0.171429 2.2 0
0.342857 2.2 0
0.514286 2.2 0
0.685714 2.2 0
0.857143 2.2 0
1.02857 2.2 0
1.2 2.2 0
1.37143 2.2 0
1.54286 2.2 0
1.71429 2.2 0
1.88571 2.2 0
2.05714 2.2 0
2.22857 2.2 0
2.4 2.2 0
2.57143 2.2 0
2.74286 2.2 0
2.91429 2.2 0
3.08571 2.2 0
3.25714 2.2 0
3.42857 2.2 0
3.6 2.2 0
3.77143 2.2 0
3.94286 2.2 0
4.11429 2.2 0
4.28571 2.2 0
4.45714 2.2 0
4.62857 2.2 0
4.8 2.2 0
4.97143 2.2 0
5.14286 2.2 0
5.31429 2.2 0
5.48571 2.2 0
5.65714 2.2 0
5.82857 2.2 0
6 2.2 0
0 2.4 0
0.171429 2.4 0
0.342857 2.4 0
0.514286 2.4 0
0.685714 2.4 0
0.857143 2.4 0
1.02857 2.4 0
1.2 2.4 0
1.37143 2.4 0
1.54286 2.4 0
1.71429 2.4 0
1.88571 2.4 0
2.05714 2.4 0
2.22857 2.4 0
2.4 2.4 0
2.57143 2.4 0
2.74286 2.4 0
2.91429 2.4 0
3.08571 2.4 0
3.25714 2.4 0
3.42857 2.4 0
3.6 2.4 0
3.77143 2.4 0
3.94286 2.4 0
4.11429 2.4 0
4.28571 2.4 0
4.45714 2.4 0
4.62857 2.4 0
4.8 2.4 0
4.97143 2.4 0
5.14286 2.4 0
5.31429 2.4 0
5.48571 2.4 0
5.65714 2.4 0
5.82857 2.4 0
6 2.4 0
0 2.6 0
0.171429 2.6 0
0.342857 2.6 0
0.514286 2.6 0
0.685714 2.6 0
0.857143 2.6 0
1.02857 2.6 0
1.2 2.6 0
1.37143 2.6 0
1.54286 2.6 0
1.71429 2.6 0
1.88571 2.6 0
2.05714 2.6 0
2.22857 2.6 0
2.4 2.6 0
2.57143 2.6 0
2.74286 2.6 0
2.91429 2.6 0
3.08571 2.6 0
3.25714 2.6 0
3.42857 2.6 0
3.6 2.6 0
3.77143 2.6 0
3.94286 2.6 0
4.11429 2.6 0
4.28571 2.6 0
4.45714 2.6 0
4.62857 2.6 0
4.8 2.6 0
4.97143 2.6 0
5.14286 2.6 0
5.31429 2.6 0
5.48571 2.6 0
5.65714 2.6 0
5.82857 2.6 0
6 2.6 0
0 2.8 0
0.171429 2.8 0
0.342857 2.8 0
0.514286 2.8 0
0.685714 2.8 0
0.857143 2.8 0
1.02857 2.8 0
1.2 2.8 0
1.37143 2.8 0
1.54286 2.8 0
1.71429 2.8 0
1.88571 2.8 0
2.05714 2.8 0
2.22857 2.8 0
2.4 2.8 0
2.57143 2.8 0
2.74286 2.8 0
2.91429 2.8 0
3.08571 2.8 0
3.25714 2.8 0
3.42857 2.8 0
3.6 2.8 0
3.77143 2.8 0
3.94286 2.8 0
4.11429 2.8 0
4.28571 2.8 0
4.45714 2.8 0
4.62857 2.8 0
4.8 2.8 0
4.97143 2.8 0
5.14286 2.8 0
5.31429 2.8 0
5.48571 2.8 0
5.65714 2.8 0
5.82857 2.8 0
6 2.8 0
0 3 0
0.171429 3 0
0.342857 3 0
0.514286 3 0
0.685714 3 0
0.857143 3 0
1.02857 3 0
1.2 3 0
1.37143 3 0
1.54286 3 0
1.71429 3 0
1.88571 3 0
2.05714 3 0
2.22857 3 0
2.4 3 0
2.57143 3 0
2.74286 3 0
2.91429 3 0
3.08571 3 0
3.25714 3 0
3.42857 3 0
3.6 3 0
3.77143 3 0
3.94286 3 0
4.11429 3 0
4.28571 3 0
4.45714 3 0
4.62857 3 0
4.8 3 0
4.97143 3 0
5.14286 3 0
5.31429 3 0
5.48571 3 0
5.65714 3 0
5.82857 3 0
6 3 0
0 3.2 0
0.171429 3.2 0
0.342857 3.2 0
0.514286 3.2 0
0.685714 3.2 0
0.857143 3.2 0
1.02857 3.2 0
1.2 3.2 0
1.37143 3.2 0
1.54286 3.2 0
1.71429 3.2 0
1.88571 3.2 0
2.05714 3.2 0
2.22857 3.2 0
2.4 3.2 0
2.57143 3.2 0
2.74286 3.2 0
2.91429 3.2 0
3.08571 3.2 0
3.25714 3.2 0
3.42857 3.2 0
3.6 3.2 0
3.77143 3.2 0
3.94286 3.2 0
4.11429 3.2 0
4.28571 3.2 0
4.45714 3.2 0
4.62857 3.2 0
4.8 3.2 0
4.97143 3.2 0
5.14286 3.2 0
5.31429 3.2 0
5.48571 3.2 0
5.65714 3.2 0
5.82857 3.2 0
6 3.2 0
0 3.4 0
0.171429 3.4 0
0.342857 3.4 0
0.514286 3.4 0
0.685714 3.4 0
0.857143 3.4 0
1.02857 3.4 0
1.2 3.4 0
1.37143 3.4 0
1.54286 3.4 0
1.71429 3.4 0
1.88571 3.4 0
2.05714 3.4 0
2.22857 3.4 0
2.4 3.4 0
2.57143 3.4 0
2.74286 3.4 0
2.91429 3.4 0
3.08571 3.4 0
3.25714 3.4 0
3.42857 3.4 0
3.6 3.4 0
3.77143 3.4 0
3.94286 3.4 0
4.11429 3.4 0
4.28571 3.4 0
4.45714 3.4 0
4.62857 3.4 0
4.8 3.4 0
4.97143 3.4 0
5.14286 3.4 0
5.31429 3.4 0
5.48571 3.4 0
5.65714 3.4 0
5.82857 3.4 0
6 3.4 0
0 3.6 0
0.171429 3.6 0
0.342857 3.6 0
0.514286 3.6 0
0.685714 3.6 0
0.857143 3.6 0
1.02857 3.6 0
1.2 3.6 0
1.37143 3.6 0
1.54286 3.6 0
1.71429 3.6 0
1.88571 3.6 0
2.05714 3.6 0
2.22857 3.6 0
2.4 3.6 0
2.57143 3.6 0
2.74286 3.6 0
2.91429 3.6 0
3.08571 3.6 0
3.25714 3.6 0
3.42857 3.6 0
3.6 3.6 0
3.77143 3.6 0
3.94286 3.6 0
4.11429 3.6 0
4.28571 3.6 0
4.45714 3.6 0
4.62857 3.6 0
4.8 3.6 0
4.97143 3.6 0
5.14286 3.6 0
5.31429 3.6 0
5.48571 3.6 0
5.65714 3.6 0
5.82857 3.6 0
6 3.6 0
0 3.8 0
0.171429 3.8 0
0.342857 3.8 0
0.514286 3.8 0
0.685714 3.8 0
0.857143 3.8 0
1.02857 3.8 0
1.2 3.8 0
1.37143 3.8 0
1.54286 3.8 0
1.71429 3.8 0
1.88571 3.8 0
2.05714 3.8 0
2.22857 3.8 0
2.4 3.8 0
2.57143 3.8 0
2.74286 3.8 0
2.91429 3.8 0
3.08571 3.8 0
3.25714 3.8 0
3.42857 3.8 0
3.6 3.8 0
3.77143 3.8 0
3.94286 3.8 0
4.11429 3.8 0
4.28571 3.8 0
4.45714 3.8 0
4.62857 3.8 0
4.8 3.8 0
4.97143 3.8 0
5.14286 3.8 0
5.31429 3.8 0
5.48571 3.8 0
5.65714 3.8 0
5.82857 3.8 0
6 3.8 0
0 4 0
0.171429 4 0
0.342857 4 0
0.514286 4 0
0.685714 4 0
0.857143 4 0
1.02857 4 0
1.2 4 0
1.37143 4 0
1.54286 4 0
1.71429 4 0
1.88571 4 0
2.05714 4 0
2.22857 4 0
2.4 4 0
2.57143 4 0
2.74286 4 0
2.91429 4 0
3.08571 4 0
3.25714 4 0
3.42857 4 0
3.6 4 0
3.77143 4 0
3.94286 4 0
4.11429 4 0
4.28571 4 0
4.45714 4 0
4.62857 4 0
4.8 4 0
4.97143 4 0
5.14286 4 0
5.31429 4 0
5.48571 4 0
5.65714 4 0
5.82857 4 0
6 4 0
0 4.2 0
0.171429 4.2 0
0.342857 4.2 0
0.514286 4.2 0
0.685714 4.2 0
0.857143 4.2 0
1.02857 4.2 0
1.2 4.2 0
1.37143 4.2 0
1.54286 4.2 0
1.71429 4.2 0
1.88571 4.2 0
2.05714 4.2 0
2.22857 4.2 0
2.4 4.2 0
2.57143 4.2 0
2.74286 4.2 0
2.91429 4.2 0
3.08571 4.2 0
3.25714 4.2 0
3.42857 4.2 0
3.6 4.2 0
3.77143 4.2 0
3.94286 4.2 0
4.11429 4.2 0
4.28571 4.2 0
4.45714 4.2 0
4.62857 4.2 0
4.8 4.2 0
4.97143 4.2 0
5.14286 4.2 0
5.31429 4.2 0
5.48571 4.2 0
5.65714 4.2 0
5.82857 4.2 0
6 4.2 0
0 4.4 0
0.171429 4.4 0
0.342857 4.4 0
0.514286 4.4 0
0.685714 4.4 0
0.857143 4.4 0
1.02857 4.4 0
1.2 4.4 0
1.37143 4.4 0
1.54286 4.4 0
1.71429 4.4 0
1.88571 4.4 0
2.05714 4.4 0
2.22857 4.4 0
2.4 4.4 0
2.57143 4.4 0
2.74286 4.4 0
2.91429 4.4 0
3.08571 4.4 0
3.25714 4.4 0
3.42857 4.4 0
3.6 4.4 0
3.77143 4.4 0
3.94286 4.4 0
4.11429 4.4 0
4.28571 4.4 0
4.45714 4.4 0
4.62857 4.4 0
4.8 4.4 0
4.97143 4.4 0
5.14286 4.4 0
5.31429 4.4 0
5.48571 4.4 0
5.65714 4.4 0
5.82857 4.4 0
6 4.4 0
0 4.6 0
0.171429 4.6 0
0.342857 4.6 0
0.514286 4.6 0
0.685714 4.6 0
0.857143 4.6 0
1.02857 4.6 0
1.2 4.6 0
1.37143 4.6 0
1.54286 4.6 0
1.71429 4.6 0
1.88571 4.6 0
2.05714 4.6 0
2.22857 4.6 0
2.4 4.6 0
2.57143 4.6 0
2.74286 4.6 0
2.91429 4.6 0
3.08571 4.6 0
3.25714 4.6 0
3.42857 4.6 0
3.6 4.6 0
3.77143 4.6 0
3.94286 4.6 0
4.11429 4.6 0
4.28571 4.6 0
4.45714 4.6 0
4.62857 4.6 0
4.8 4.6 0
4.97143 4.6 0
5.14286 4.6 0
5.31429 4.6 0
5.48571 4.6 0
5.65714 4.6 0
5.82857 4.6 0
6 4.6 0
0 4.8 0
0.171429 4.8 0
0.342857 4.8 0
0.514286 4.8 0
0.685714 4.8 0
0.857143 4.8 0
1.02857 4.8 0
1.2 4.8 0
1.37143 4.8 0
1.54286 4.8 0
1.71429 4.8 0
1.88571 4.8 0
2.05714 4.8 0
2.22857 4.8 0
2.4 4.8 0
2.57143 4.8 0
2.74286 4.8 0
2.91429 4.8 0
3.08571 4.8 0
3.25714 4.8 0
3.42857 4.8 0
3.6 4.8 0
3.77143 4.8 0
3.94286 4.8 0
4.11429 4.8 0
4.28571 4.8 0
4.45714 4.8 0
4.62857 4.8 0
4.8 4.8 0
4.97143 4.8 0
5.14286 4.8 0
5.31429 4.8 0
5.48571 4.8 0
5.65714 4.8 0
5.82857 4.8 0
6 4.8 0
0 5 0
0.171429 5 0
0.342857 5 0
0.514286 5 0
0.685714 5 0
0.857143 5 0
1.02857 5 0
1.2 5 0
1.37143 5 0
1.54286 5 0
1.71429 5 0
1.88571 5 0
2.05714 5 0
2.22857 5 0
2.4 5 0
2.57143 5 0
2.74286 5 0
2.91429 5 0
3.08571 5 0
3.25714 5 0
3.42857 5 0
3.6 5 0
3.77143 5 0
3.94286 5 0
4.11429 5 0
4.28571 5 0
4.45714 5 0
4.62857 5 0
4.8 5 0
4.97143 5 0
5.14286 5 0
5.31429 5 0
5.48571 5 0
5.65714 5 0
5.82857 5 0
6 5 0

CELL_DATA 875
SCALARS phi float
LOOKUP_TABLE default 
4.711
4.711
4.711
4.711
4.711
4.711
4.711
4.711
4.711
4.711
4.711
4.711
4.711
4.711
4.711
4.711
4.711
4.711
4.711
4.711
4.711
4.711
4.711
4.711
4.711
4.711
4.711
4.711
4.711
4.711
4.711
4.711
4.711
4.711
4.711
4.711
4.711
4.711
4.711
4.711
4.711
4.711
4.711
4.711
4.711
4.711
4.711
4.711
4.711
4.711
4.711
4.711
4.711
4.711
4.711
4.711
4.711
4.711
4.711
4.711
4.711
4.711
4.711
4.711
4.711
4.711
4.711
4.711
4.711
4.711
4.711
4.711
4.711
4.711
4.711
4.711
4.711
4.711
4.711
4.711
4.711
4.711
4.711
4.711
4.711
4.711
4.711
4.711
4.711
4.711
4.711
4.711
4.711
4.711
4.711
4.711
4.711
4.711
4.711
4.711
4.711
4.711
4.711
4.711
4.711
4.711
4.711
4.711
4.711
4.711
4.711
4.711
4.711
4.711
4.711
4.711
4.711
4.711
4.711
4.711
4.711
4.711
4.711
4.711
4.711
4.711
4.711
4.711
4.711
4.711
4.711
4.711
4.711
4.711
4.711
4.711
4.711
4.711
4.711
4.711
4.711
4.711
4.711
4.711
4.711
4.711
4.711
4.711
4.711
4.711
4.711
4.711
4.711
4.711
4.711
4.711
4.711
4.711
4.711
4.711
4.711
4.711
4.711
4.711
4.711
4.711
4.711
4.711
4.711
4.711
4.711
4.711
4.711
4.711
4.711
4.711
4.711
4.711
4.711
4.711
4.711
4.711
4.711
4.711
4.711
4.711
4.711
4.711
4.711
4.711
4.711
4.711
4.711
4.711
4.711
4.711
4.711
4.711
4.711
4.711
4.711
4.711
4.711
4.711
4.711
4.711
4.711
4.711
4.711
4.711
4.711
4.711
4.711
4.711
4.711
4.711
4.711
4.711
4.711
4.711
4.711
4.711
4.711
4.711
4.711
4.711
4.711
4.711
4.711
4.711
4.711
4.711
4.711
4.711
4.711
4.711
4.711
4.711
4.711
4.711
4.711
4.711
4.711
4.711
4.711
4.711
4.711
4.711
4.711
4.711
4.711
4.711
4.711
4.711
4.711
4.711
4.711
4.711
4.711
4.711
4.711
4.711
4.711
4.711
4.711
4.711
4.711
4.711
4.711
4.711
4.711
4.711
4.711
4.711
4.711
4.711
4.711
4.711
4.711
4.711
4.711
4.711
4.711
4.711
4.711
4.711
4.711
4.711
4.711
4.711
4.711
4.711
4.711
4.711
4.711
4.711
4.711
4.711
4.711
4.711
4.711
4.711
4.711
4.711
4.711
4.711
4.711
4.711
4.711
4.711
4.711
4.711
4.711
4.711
4.711
4.711
4.711
4.711
4.711
4.711
4.711
4.711
4.711
4.711
4.711
4.711
4.711
4.711
4.711
4.711
4.711
4.711
4.711
4.711
4.711
4.711
4.711
4.711
4.711
4.711
4.711
4.711
4.711
4.711
4.711
4.711
4.711
4.711
4.711
4.711
4.711
4.711
4.711
4.711
4.711
4.711
4.711
4.711
4.711
4.711
4.711
4.711
4.711
4.711
4.711
4.711
4.711
4.711
4.711
4.711
4.711
4.711
4.711
4.711
4.711
4.711
4.711
4.711
4.711
4.711
4.711
4.711
4.711
4.711
4.711
4.711
4.711
4.711
4.711
4.711
4.711
4.711
4.711
4.711
4.711
4.711
4.711
4.711
4.711
4.711
4.711
4.711
4.711
4.711
4.711
4.711
4.711
4.711
4.711
4.711
4.711
4.711
4.711
4.711
4.711
4.711
4.711
4.711
4.711
4.711
4.711
4.711
4.711
4.711
4.711
4.711
4.711
4.711
4.711
4.711
4.711
4.711
4.711
4.711
4.711
4.711
4.711
4.711
4.711
4.711
4.711
4.711
4.711
4.711
4.711
4.711
4.711
4.711
4.711
4.711
4.711
4.711
4.711
4.711
4.711
4.711
4.711
4.711
4.711
4.711
4.711
4.711
4.711
4.711
4.711
4.711
4.711
4.711
4.711
4.711
4.711
4.711
4.711
4.711
4.711
4.711
4.711
4.711
4.711
4.711
4.711
4.711
4.711
4.711
4.711
4.711
4.711
4.711
4.711
4.711
4.711
4.711
4.711
4.711
4.711
4.711
4.711
4.711
4.711
4.711
4.711
4.711
4.711
4.711
4.711
4.711
4.711
4.711
4.711
4.711
4.711
4.711
4.711
4.711
4.711
4.711
4.711
4.711
4.711
4.711
4.711
4.711
4.711
4.711
4.711
4.711
4.711
4.711
4.711
4.711
4.711
4.711
4.711
4.711
4.711
4.711
4.711
4.711
4.711
4.711
4.711
4.711
4.711
4.711
4.711
4.711
4.711
4.711
4.711
4.711
4.711
4.711
4.711
4.711
4.711
4.711
4.711
4.711
4.711
4.711
4.711
4.711
4.711
4.711
4.711
4.711
4.711
4.711
4.711
4.711
4.711
4.711
4.711
4.711
4.711
4.711
4.711
4.711
4.711
4.711
4.711
4.711
4.711
4.711
4.711
4.711
4.711
4.711
4.711
4.711
4.711
4.711
4.711
4.711
4.711
4.711
4.711
4.711
4.711
4.711
4.711
4.711
4.711
4.711
4.711
4.711
4.711
4.711
4.711
4.711
4.711
4.711
4.711
4.711
4.711
4.711
4.711
4.711
4.711
4.711
4.711
4.711
4.711
4.711
4.711
4.711
4.711
4.711
4.711
4.711
4.711
4.711
4.711
4.711
4.711
4.711
4.711
4.711
4.711
4.711
4.711
4.711
4.711
4.711
4.711
4.711
4.711
4.711
4.711
4.711
4.711
4.711
4.711
4.711
4.711
4.711
4.711
4.711
4.711
4.711
4.711
4.711
4.711
4.711
4.711
4.711
4.711
4.711
4.711
4.711
4.711
4.711
4.711
4.711
4.711
4.711
4.711
4.711
4.711
4.711
4.711
4.711
4.711
4.711
4.711
4.711
4.711
4.711
4.711
4.711
4.711
4.711
4.711
4.711
4.711
4.711
4.711
4.711
4.711
4.711
4.711
4.711
4.711
4.711
4.711
4.711
4.711
4.711
4.711
4.711
4.711
4.711
4.711
4.711
4.711
4.711
4.711
4.711
4.711
4.711
4.711
4.711
4.711
4.711
4.711
4.711
4.711
4.711
4.711
4.711
4.711
4.711
4.711
4.711
4.711
4.711
4.711
4.711
4.711
4.711
4.711
4.711
4.711
4.711
4.711
4.711
4.711
4.711
4.711
4.711
4.711
4.711
4.711
4.711
4.711
4.711
4.711
4.711
4.711
4.711
4.711
4.711
4.711
4.711
4.711
4.711
4.711
4.711
4.711
4.711
4.711
4.711
4.711
4.711
4.711
4.711
4.711
4.711
4.711
4.711
4.711
4.711
4.711
4.711
4.711
4.711
4.711
4.711
4.711
4.711
4.711
4.711
4.711
4.711
4.711
4.711
4.711
4.711
4.711
4.711
4.711
4.711
4.711
4.711
4.711
4.711
4.711
4.711
4.711
4.711
4.711
4.711
4.711
4.711
4.711
4.711
4.711
4.711
4.711
4.711
4.711
4.711
4.711
4.711
4.711
4.711
4.711
4.711
4.711
4.711
4.711
4.711
4.711
4.711
4.711
4.711
4.711
4.711
4.711
4.711
4.711
4.711
4.711
4.711
4.711
4.711
4.711
4.711
4.711
4.711
4.711
4.711
4.711
4.711
4.711
4.711
4.711
4.711
4.711
4.711
4.711
4.711
4.711
4.711
4.711
4.711
4.711
4.711
4.711
4.711
4.711
4.711
4.711
4.711
4.711

SCALARS p float
LOOKUP_TABLE default 
-1679.75
-1679.75
-1678.87
-1675.06
-1669
-1669
0
0
0
-4985.28
-4985.28
-4922.99
-4744.62
-4450.64
-4072.96
-3650.4
-3215.91
-2792.94
-2396.37
-2034.44
-1710.85
-1426.2
-1179.02
-966.661
-785.755
-632.676
-503.762
-395.545
-304.822
-228.724
-164.732
-110.673
-64.7027
-25.2029
10
-1679.75
-1679.75
-1678.87
-1675.06
-1669
-1669
0
0
0
-4985.28
-4985.28
-4922.99
-4744.62
-4450.64
-4072.96
-3650.4
-3215.91
-2792.94
-2396.37
-2034.44
-1710.85
-1426.2
-1179.02
-966.661
-785.755
-632.676
-503.762
-395.545
-304.822
-228.724
-164.732
-110.673
-64.7027
-25.2029
10
-1686.38
-1686.38
-1685.17
-1680.68
-1672.71
-1672.71
0
0
0
-4988.75
-4988.75
-4928.78
-4753.06
-4454.83
-4069.82
-3641.03
-3202.87
-2778.63
-2382.47
-2021.95
-1700.27
-1417.64
-1172.43
-961.836
-782.439
-630.596
-502.652
-395.163
-304.96
-229.208
-165.418
-111.441
-65.4418
-25.804
10
-1704.8
-1704.8
-1703.53
-1698.02
-1687.65
-1687.65
0
0
0
-5008.43
-5008.43
-4916.92
-4715.25
-4403.75
-4015.5
-3589.56
-3157.48
-2740.73
-2352.31
-1999.07
-1683.82
-1406.61
-1165.75
-958.491
-781.528
-631.346
-504.428
-397.467
-307.412
-231.533
-167.423
-113
-66.4791
-26.3052
10
-1741.22
-1741.22
-1740.25
-1734.22
-1721.96
-1721.96
0
0
0
-5098.96
-5098.96
-4936.9
-4676.32
-4336.26
-3940.11
-3517.7
-3095.05
-2690.2
-2313.98
-1971.99
-1666.39
-1396.99
-1162.11
-959.174
-785.096
-636.624
-510.49
-403.615
-313.145
-236.511
-171.438
-115.946
-68.3324
-27.1266
10
-1800.72
-1800.72
-1801.01
-1796.31
-1784.08
-1784.08
0
0
0
-5354.77
-5354.77
-5081.98
-4716.59
-4322.46
-3894.49
-3459.42
-3038.29
-2642.76
-2278.81
-1949.09
-1654.24
-1393.49
-1165.06
-966.536
-795.137
-647.942
-522.001
-414.524
-322.902
-244.761
-177.985
-120.712
-71.3392
-28.4786
10
-1885.49
-1885.49
-1889.22
-1890.51
-1884.19
-1884.19
0
0
0
-5787.64
-5787.64
-5653.3
-5065.61
-4489.81
-3934.31
-3441.26
-3003.4
-2610.36
-2256.15
-1937.62
-1652.86
-1400.12
-1177.43
-982.553
-813.011
-666.24
-539.632
-430.703
-337.101
-256.654
-187.406
-127.613
-75.7533
-30.5188
10
-1992.49
-1992.49
-2003.32
-2020.4
-2040.36
-2040.36
-2738.68
-2929.28
-3117.86
-3308.34
-3510.5
-3746.31
-7049.7
-4961.2
-4028.47
-3438.5
-2981.61
-2592.56
-2248.48
-1940.44
-1664.54
-1418.42
-1200.11
-1007.63
-838.822
-691.462
-563.262
-452.041
-355.691
-272.221
-199.818
-136.851
-81.803
-33.4253
10
-2110.67
-2110.67
-2131.31
-2173.94
-2253.97
-2423.11
-2738.68
-2929.28
-3117.86
-3308.34
-3510.5
-3746.31
-4992.79
-4392.24
-3827.47
-3351.74
-2942.03
-2578.81
-2251.63
-1955.42
-1687.74
-1447.02
-1231.81
-1040.55
-871.532
-722.716
-592.135
-477.933
-378.278
-291.245
-215.176
-148.621
-89.8011
-37.5757
10
-2222.12
-2222.12
-2248.65
-2303.36
-2395.7
-2540.35
-2738.68
-2929.28
-3117.86
-3308.34
-3510.5
-3746.31
-4018.01
-3879.68
-3579.28
-3237.26
-2896.16
-2570.24
-2264.61
-1981.29
-1721.35
-1485.03
-1271.74
-1080.65
-910.643
-759.498
-625.708
-507.471
-403.025
-311.162
-230.388
-159.153
-96.4338
-40.7276
10
-2311.98
-2311.98
-2340.4
-2397.85
-2488.07
-2614.05
-2771.29
-2940.21
-3113.18
-3285.16
-3450.28
-3595.51
-3684.16
-3612.99
-3420.38
-3161.19
-2873.63
-2580.14
-2293.5
-2020.77
-1765.63
-1529.91
-1314.85
-1120.37
-945.525
-789.869
-651.7
-529.488
-421.669
-326.483
-242.39
-167.97
-101.997
-43.2287
10
-2371.13
-2371.13
-2399.64
-2456.76
-2543.54
-2659.63
-2800.7
-2957.2
-3120.26
-3280.44
-3424.95
-3533.76
-3576.11
-3516.62
-3362.95
-3141.92
-2881.65
-2604.6
-2326.44
-2057.21
-1803.1
-1567.47
-1351.5
-1155.37
-978.518
-820.118
-678.828
-553.214
-441.755
-342.905
-255.207
-177.305
-107.975
-46.0672
10
-2394.71
-2394.71
-2423.14
-2480.14
-2566.2
-2680.52
-2819.43
-2975.76
-3141.07
-3305.13
-3453.35
-3564.06
-3607.65
-3556.11
-3411.83
-3197.41
-2940.08
-2663.03
-2383.06
-2111.03
-1853.57
-1614.23
-1394.48
-1194.58
-1014.02
-851.838
-706.727
-577.272
-461.982
-359.376
-268.039
-186.651
-114.008
-48.994
10
-2380.83
-2380.83
-2410.01
-2468.71
-2558.36
-2679.27
-2828.11
-2996.52
-3176.96
-3361.37
-3538.32
-3688.13
-3771.21
-3729.93
-3573.21
-3337.33
-3058.19
-2762.42
-2467.4
-2183.45
-1916.41
-1669.14
-1442.68
-1236.94
-1051.15
-884.184
-734.604
-600.936
-481.653
-375.266
-280.355
-195.597
-119.791
-51.8209
10
-2330.1
-2330.1
-2359.74
-2420.06
-2515.55
-2650.6
-2822.9
-3015.28
-3223.09
-3444.47
-3675.63
-3909.74
-4112.89
-4075.19
-3864.68
-3566.31
-3234.84
-2899.9
-2576.56
-2272.05
-1989.7
-1730.66
-1494.82
-1281.36
-1089.05
-916.42
-761.833
-623.665
-500.295
-390.167
-291.814
-203.88
-125.135
-54.4434
10
-2246.46
-2246.46
-2274.4
-2332.41
-2431
-2587.02
-2805.53
-3028.57
-3267.36
-3532.51
-3835.44
-4228.04
-4813.83
-4687.2
-4310.95
-3880.17
-3458.99
-3065.33
-2702.97
-2371.55
-2069.82
-1796.21
-1549.02
-1326.45
-1126.64
-947.715
-787.75
-644.924
-517.473
-403.731
-302.149
-211.305
-129.914
-56.7994
10
-2138.82
-2138.82
-2160.61
-2205.9
-2291.08
-2471.12
-2805.53
-3028.57
-3267.36
-3532.51
-3835.44
-4228.04
-6688.95
-5726.32
-4897.2
-4239.51
-3699.67
-3238.51
-2833.99
-2473.96
-2151.53
-1862.22
-1602.73
-1370.31
-1162.49
-976.959
-811.492
-664.038
-532.659
-415.551
-311.056
-217.658
-133.998
-58.829
10
-2022.55
-2022.55
-2034.01
-2052.34
-2073.84
-2073.84
-2805.53
-3028.57
-3267.36
-3835.44
-3835.44
-4228.04
-10338.8
-6858.86
-5400.21
-4536.96
-3907.56
-3395.87
-2957.38
-2572.21
-2230.25
-1925.44
-1653.5
-1411.04
-1195.07
-1002.92
-832.067
-680.207
-545.212
-425.124
-318.152
-222.668
-137.213
-60.4482
10
-1916.4
-1916.4
-1920.41
-1922.2
-1916.35
-1916.35
0
0
0
-8764.14
-8764.14
-8883.4
-7359.26
-6293.93
-5393.96
-4660.39
-4049.56
-3525.98
-3068.13
-2663.33
-2303.78
-1984
-1699.69
-1447.16
-1223.1
-1024.49
-848.513
-692.61
-554.442
-431.876
-322.976
-225.987
-139.327
-61.5391
10
-1831.98
-1831.98
-1832.38
-1827.87
-1815.78
-1815.78
0
0
0
-7921.01
-7921.01
-7467.61
-6739.14
-6044.44
-5372.13
-4740.96
-4162.67
-3639.24
-3168.52
-2747
-2370.95
-2036.53
-1739.92
-1477.41
-1245.43
-1040.65
-859.928
-700.447
-559.638
-435.183
-324.994
-227.182
-140.032
-61.9369
10
-1772.62
-1772.62
-1771.69
-1765.72
-1753.51
-1753.51
0
0
0
-7334.82
-7334.82
-7005.36
-6535.19
-5993.81
-5416.32
-4833.68
-4270.78
-3743.34
-3259.37
-2821.55
-2429.46
-2080.81
-1772.29
-1500.21
-1260.76
-1050.3
-865.379
-702.896
-560.054
-434.356
-323.572
-225.697
-138.894
-61.3943
10
-1736.24
-1736.24
-1734.99
-1729.5
-1719.15
-1719.15
0
0
0
-7039.94
-7039.94
-6827.04
-6482.65
-6026.31
-5496.28
-4933.41
-4371.67
-3834.55
-3335.87
-2882.12
-2475.03
-2113.33
-1794.05
-1513.45
-1267.48
-1052.2
-863.856
-699.095
-554.904
-428.632
-317.946
-220.78
-135.251
-59.4859
10
-1717.84
-1717.84
-1716.64
-1712.15
-1704.19
-1704.19
0
0
0
-6911.23
-6911.23
-6763.31
-6487.58
-6079.97
-5574.45
-5017.54
-4450.21
-3901.48
-3388.98
-2921.48
-2501.97
-2129.73
-1801.93
-1514.72
-1263.82
-1045.03
-854.362
-688.221
-543.431
-417.228
-307.236
-211.423
-128.029
-55.3575
10
-1711.21
-1711.21
-1710.34
-1706.53
-1700.48
-1700.48
0
0
0
-6866.63
-6866.63
-6748.97
-6504.85
-6118.51
-5621.5
-5063.45
-4489.34
-3931.31
-3408.97
-2932.26
-2504.74
-2125.91
-1792.96
-1501.91
-1248.34
-1027.84
-836.237
-669.791
-525.205
-399.645
-290.728
-196.523
-115.587
-47.072
10
-1711.21
-1711.21
-1710.34
-1706.53
-1700.48
-1700.48
0
0
0
-6866.63
-6866.63
-6748.97
-6504.85
-6118.51
-5621.5
-5063.45
-4489.34
-3931.31
-3408.97
-2932.26
-2504.74
-2125.91
-1792.96
-1501.91
-1248.34
-1027.84
-836.237
-669.791
-525.205
-399.645
-290.728
-196.523
-115.587
-47.072
10

SCALARS  u float
LOOKUP_TABLE default 
0.3625
-0.752163
-0.76944
-0.77468
-0.778794
-0.784128
0
0
0
-2.64797
-3.00556
-3.01312
-3.00614
-2.98222
-2.94358
-2.89479
-2.84043
-2.78425
-2.72895
-2.67636
-2.62763
-2.58344
-2.5441
-2.50968
-2.48005
-2.455
-2.4342
-2.4173
-2.40392
-2.39368
-2.3862
-2.38111
-2.37808
-2.37677
-2.37677
1.40229
-0.839902
-0.882459
-0.904725
-0.929005
-1.26043
0
0
0
-5.38986
-6.16032
-6.23385
-6.23967
-6.19527
-6.11459
-6.0106
-5.89424
-5.77381
-5.65512
-5.54203
-5.437
-5.34143
-5.25599
-5.18078
-5.11556
-5.0598
-5.0128
-4.97378
-4.94192
-4.91638
-4.89635
-4.88105
-4.8698
-4.8622
-4.85975
2.24381
-0.434696
-0.488302
-0.508337
-0.529299
-1.06329
0
0
0
-5.35997
-5.91367
-5.855
-5.78193
-5.69507
-5.59925
-5.50038
-5.403
-5.31024
-5.2242
-5.14626
-5.0772
-5.01736
-4.9667
-4.92486
-4.89126
-4.86515
-4.84572
-4.83213
-4.82353
-4.81915
-4.81824
-4.82019
-4.8245
-4.83103
-4.83522
3.00363
1.5214
0.284158
-0.124885
-0.165369
-0.887481
0
0
0
-5.29609
-5.66601
-5.47843
-5.29393
-5.14328
-5.02537
-4.93167
-4.85519
-4.79173
-4.739
-4.69578
-4.66132
-4.63504
-4.61635
-4.6046
-4.59907
-4.599
-4.60363
-4.61218
-4.62395
-4.63829
-4.65461
-4.6724
-4.69125
-4.71093
-4.7213
3.68351
3.62673
2.36006
1.83206
0.49258
-0.727508
0
0
0
-5.19505
-5.34169
-5.03149
-4.75369
-4.55994
-4.43779
-4.36241
-4.31524
-4.28604
-4.26928
-4.26196
-4.26229
-4.26911
-4.28151
-4.2987
-4.31993
-4.3445
-4.37177
-4.40111
-4.43196
-4.46384
-4.49631
-4.52896
-4.56147
-4.5936
-4.60989
4.28349
4.27083
4.19282
4.02903
2.55781
0.361231
0
0
0
-4.97479
-4.82989
-4.42502
-4.12166
-3.94425
-3.85203
-3.81747
-3.81192
-3.82267
-3.84366
-3.87173
-3.90505
-3.94244
-3.98302
-4.02607
-4.071
-4.11726
-4.16439
-4.21194
-4.25954
-4.30687
-4.35362
-4.39953
-4.44435
-4.48785
-4.50961
4.80356
4.78887
4.75465
4.69386
4.47821
2.22562
0
0
0
-4.65463
-3.96054
-3.46675
-3.31388
-3.36003
-3.32184
-3.3445
-3.38712
-3.43845
-3.49453
-3.55355
-3.61451
-3.67673
-3.73973
-3.80311
-3.86653
-3.92969
-3.99234
-4.05422
-4.11512
-4.17485
-4.23324
-4.29015
-4.34538
-4.39874
-4.42529
5.24373
3.80297
2.24525
2.08742
1.85357
1.45931
0.35583
0.276452
0.225898
-2.65962
-2.79523
-2.16076
-2.17788
-2.83912
-2.92805
-3.01373
-3.09607
-3.17653
-3.25584
-3.33433
-3.41211
-3.48922
-3.56564
-3.6413
-3.71611
-3.78994
-3.86267
-3.93411
-4.00415
-4.07269
-4.13963
-4.20489
-4.26836
-4.32982
-4.36038
5.60401
0.221247
-1.36708
-1.51709
-1.70642
-1.91863
-2.2227
-2.38103
-2.49251
-2.58609
-2.56552
-2.32603
-2.41872
-2.75401
-2.81979
-2.89878
-2.97879
-3.05843
-3.13795
-3.21763
-3.29753
-3.37763
-3.45779
-3.53781
-3.6175
-3.69662
-3.77486
-3.85196
-3.92775
-4.00211
-4.07491
-4.14591
-4.21501
-4.28258
-4.31639
5.88433
-2.30295
-2.37102
-2.39585
-2.4207
-2.44104
-2.47029
-2.48821
-2.49369
-2.49018
-2.47221
-2.43133
-2.49799
-2.63264
-2.7142
-2.79382
-2.87381
-2.95465
-3.03647
-3.11923
-3.20271
-3.28671
-3.37099
-3.45516
-3.5385
-3.62028
-3.70021
-3.77818
-3.85397
-3.92739
-3.99849
-4.06761
-4.13507
-4.20112
-4.23418
6.08462
-2.47372
-2.50431
-2.50308
-2.49659
-2.48561
-2.47494
-2.46538
-2.45611
-2.44842
-2.44437
-2.45153
-2.49671
-2.57071
-2.64545
-2.72133
-2.79895
-2.87828
-2.95903
-3.04091
-3.12357
-3.20644
-3.28893
-3.37069
-3.45176
-3.53223
-3.61195
-3.69062
-3.76808
-3.8443
-3.91907
-3.99222
-4.06365
-4.13337
-4.16818
6.20483
-2.47451
-2.50166
-2.49578
-2.48461
-2.46976
-2.45401
-2.43949
-2.42761
-2.42074
-2.42268
-2.43956
-2.47892
-2.53729
-2.60459
-2.67667
-2.75196
-2.82976
-2.90959
-2.991
-3.07347
-3.15662
-3.24015
-3.32363
-3.40662
-3.48879
-3.5699
-3.64971
-3.72808
-3.80491
-3.88011
-3.95363
-4.02543
-4.09555
-4.13058
6.24493
-2.46876
-2.49524
-2.48824
-2.4758
-2.45947
-2.44154
-2.42423
-2.40965
-2.40082
-2.40217
-2.4197
-2.45848
-2.51571
-2.58361
-2.65742
-2.73482
-2.81472
-2.89647
-2.97958
-3.06358
-3.14804
-3.23257
-3.31676
-3.40024
-3.48271
-3.56392
-3.64366
-3.7218
-3.79824
-3.87295
-3.94591
-4.01714
-4.08671
-4.12148
6.20485
-2.47548
-2.50252
-2.49603
-2.48358
-2.46653
-2.44739
-2.42804
-2.40968
-2.39481
-2.3881
-2.39866
-2.43995
-2.50691
-2.58323
-2.66346
-2.7457
-2.82926
-2.91375
-2.99887
-3.08426
-3.16961
-3.25459
-3.33886
-3.42213
-3.50414
-3.5847
-3.66362
-3.74082
-3.81622
-3.88983
-3.96165
-4.03175
-4.10022
-4.13445
6.08465
-2.47673
-2.50767
-2.50575
-2.4972
-2.48251
-2.46597
-2.44778
-2.42643
-2.40313
-2.37983
-2.36767
-2.41781
-2.51629
-2.60988
-2.70063
-2.78972
-2.87767
-2.96481
-3.05127
-3.13705
-3.22208
-3.30619
-3.3892
-3.47092
-3.55119
-3.62986
-3.70682
-3.782
-3.8554
-3.92701
-3.9969
-4.06514
-4.13184
-4.16522
5.88436
-2.28202
-2.37116
-2.4013
-2.42453
-2.44134
-2.46464
-2.47247
-2.46171
-2.43582
-2.38469
-2.28872
-2.38022
-2.58516
-2.69149
-2.79024
-2.8839
-2.97368
-3.06065
-3.14557
-3.22888
-3.31083
-3.39146
-3.47077
-3.54868
-3.62509
-3.69995
-3.77318
-3.84477
-3.91471
-3.98306
-4.04986
-4.11522
-4.17926
-4.21136
5.60402
1.58927
-1.27965
-1.51065
-1.70135
-1.91214
-2.21281
-2.36323
-2.4532
-2.52823
-2.47386
-2.02601
-2.16349
-2.71503
-2.80619
-2.91047
-3.00921
-3.10138
-3.18844
-3.27171
-3.35207
-3.4301
-3.50613
-3.58039
-3.65298
-3.72397
-3.79341
-3.86134
-3.92779
-3.99284
-4.05655
-4.11902