# vtk DataFile Version 3.0
vtk output411
ASCII
DATASET STRUCTURED_GRID
DIMENSIONS 41 21 1
POINTS 861 float
0 0 0
0.15 0 0
0.3 0 0
0.45 0 0
0.6 0 0
0.75 0 0
0.9 0 0
1.05 0 0
1.2 0 0
1.35 0 0
1.5 0 0
1.65 0 0
1.8 0 0
1.95 0 0
2.1 0 0
2.25 0 0
2.4 0 0
2.55 0 0
2.7 0 0
2.85 0 0
3 0 0
3.15 0 0
3.3 0 0
3.45 0 0
3.6 0 0
3.75 0 0
3.9 0 0
4.05 0 0
4.2 0 0
4.35 0 0
4.5 0 0
4.65 0 0
4.8 0 0
4.95 0 0
5.1 0 0
5.25 0 0
5.4 0 0
5.55 0 0
5.7 0 0
5.85 0 0
6 0 0
0 0.25 0
0.15 0.25 0
0.3 0.25 0
0.45 0.25 0
0.6 0.25 0
0.75 0.25 0
0.9 0.25 0
1.05 0.25 0
1.2 0.25 0
1.35 0.25 0
1.5 0.25 0
1.65 0.25 0
1.8 0.25 0
1.95 0.25 0
2.1 0.25 0
2.25 0.25 0
2.4 0.25 0
2.55 0.25 0
2.7 0.25 0
2.85 0.25 0
3 0.25 0
3.15 0.25 0
3.3 0.25 0
3.45 0.25 0
3.6 0.25 0
3.75 0.25 0
3.9 0.25 0
4.05 0.25 0
4.2 0.25 0
4.35 0.25 0
4.5 0.25 0
4.65 0.25 0
4.8 0.25 0
4.95 0.25 0
5.1 0.25 0
5.25 0.25 0
5.4 0.25 0
5.55 0.25 0
5.7 0.25 0
5.85 0.25 0
6 0.25 0
0 0.5 0
0.15 0.5 0
0.3 0.5 0
0.45 0.5 0
0.6 0.5 0
0.75 0.5 0
0.9 0.5 0
1.05 0.5 0
1.2 0.5 0
1.35 0.5 0
1.5 0.5 0
1.65 0.5 0
1.8 0.5 0
1.95 0.5 0
2.1 0.5 0
2.25 0.5 0
2.4 0.5 0
2.55 0.5 0
2.7 0.5 0
2.85 0.5 0
3 0.5 0
3.15 0.5 0
3.3 0.5 0
3.45 0.5 0
3.6 0.5 0
3.75 0.5 0
3.9 0.5 0
4.05 0.5 0
4.2 0.5 0
4.35 0.5 0
4.5 0.5 0
4.65 0.5 0
4.8 0.5 0
4.95 0.5 0
5.1 0.5 0
5.25 0.5 0
5.4 0.5 0
5.55 0.5 0
5.7 0.5 0
5.85 0.5 0
6 0.5 0
0 0.75 0
0.15 0.75 0
0.3 0.75 0
0.45 0.75 0
0.6 0.75 0
0.75 0.75 0
0.9 0.75 0
1.05 0.75 0
1.2 0.75 0
1.35 0.75 0
1.5 0.75 0
1.65 0.75 0
1.8 0.75 0
1.95 0.75 0
2.1 0.75 0
2.25 0.75 0
2.4 0.75 0
2.55 0.75 0
2.7 0.75 0
2.85 0.75 0
3 0.75 0
3.15 0.75 0
3.3 0.75 0
3.45 0.75 0
3.6 0.75 0
3.75 0.75 0
3.9 0.75 0
4.05 0.75 0
4.2 0.75 0
4.35 0.75 0
4.5 0.75 0
4.65 0.75 0
4.8 0.75 0
4.95 0.75 0
5.1 0.75 0
5.25 0.75 0
5.4 0.75 0
5.55 0.75 0
5.7 0.75 0
5.85 0.75 0
6 0.75 0
0 1 0
0.15 1 0
0.3 1 0
0.45 1 0
0.6 1 0
0.75 1 0
0.9 1 0
1.05 1 0
1.2 1 0
1.35 1 0
1.5 1 0
1.65 1 0
1.8 1 0
1.95 1 0
2.1 1 0
2.25 1 0
2.4 1 0
2.55 1 0
2.7 1 0
2.85 1 0
3 1 0
3.15 1 0
3.3 1 0
3.45 1 0
3.6 1 0
3.75 1 0
3.9 1 0
4.05 1 0
4.2 1 0
4.35 1 0
4.5 1 0
4.65 1 0
4.8 1 0
4.95 1 0
5.1 1 0
5.25 1 0
5.4 1 0
5.55 1 0
5.7 1 0
5.85 1 0
6 1 0
0 1.25 0
0.15 1.25 0
0.3 1.25 0
0.45 1.25 0
0.6 1.25 0
0.75 1.25 0
0.9 1.25 0
1.05 1.25 0
1.2 1.25 0
1.35 1.25 0
1.5 1.25 0
1.65 1.25 0
1.8 1.25 0
1.95 1.25 0
2.1 1.25 0
2.25 1.25 0
2.4 1.25 0
2.55 1.25 0
2.7 1.25 0
2.85 1.25 0
3 1.25 0
3.15 1.25 0
3.3 1.25 0
3.45 1.25 0
3.6 1.25 0
3.75 1.25 0
3.9 1.25 0
4.05 1.25 0
4.2 1.25 0
4.35 1.25 0
4.5 1.25 0
4.65 1.25 0
4.8 1.25 0
4.95 1.25 0
5.1 1.25 0
5.25 1.25 0
5.4 1.25 0
5.55 1.25 0
5.7 1.25 0
5.85 1.25 0
6 1.25 0
0 1.5 0
0.15 1.5 0
0.3 1.5 0
0.45 1.5 0
0.6 1.5 0
0.75 1.5 0
0.9 1.5 0
1.05 1.5 0
1.2 1.5 0
1.35 1.5 0
1.5 1.5 0
1.65 1.5 0
1.8 1.5 0
1.95 1.5 0
2.1 1.5 0
2.25 1.5 0
2.4 1.5 0
2.55 1.5 0
2.7 1.5 0
2.85 1.5 0
3 1.5 0
3.15 1.5 0
3.3 1.5 0
3.45 1.5 0
3.6 1.5 0
3.75 1.5 0
3.9 1.5 0
4.05 1.5 0
4.2 1.5 0
4.35 1.5 0
4.5 1.5 0
4.65 1.5 0
4.8 1.5 0
4.95 1.5 0
5.1 1.5 0
5.25 1.5 0
5.4 1.5 0
5.55 1.5 0
5.7 1.5 0
5.85 1.5 0
6 1.5 0
0 1.75 0
0.15 1.75 0
0.3 1.75 0
0.45 1.75 0
0.6 1.75 0
0.75 1.75 0
0.9 1.75 0
1.05 1.75 0
1.2 1.75 0
1.35 1.75 0
1.5 1.75 0
1.65 1.75 0
1.8 1.75 0
1.95 1.75 0
2.1 1.75 0
2.25 1.75 0
2.4 1.75 0
2.55 1.75 0
2.7 1.75 0
2.85 1.75 0
3 1.75 0
3.15 1.75 0
3.3 1.75 0
3.45 1.75 0
3.6 1.75 0
3.75 1.75 0
3.9 1.75 0
4.05 1.75 0
4.2 1.75 0
4.35 1.75 0
4.5 1.75 0
4.65 1.75 0
4.8 1.75 0
4.95 1.75 0
5.1 1.75 0
5.25 1.75 0
5.4 1.75 0
5.55 1.75 0
5.7 1.75 0
5.85 1.75 0
6 1.75 0
0 2 0
0.15 2 0
0.3 2 0
0.45 2 0
0.6 2 0
0.75 2 0
0.9 2 0
1.05 2 0
1.2 2 0
1.35 2 0
1.5 2 0
1.65 2 0
1.8 2 0
1.95 2 0
2.1 2 0
2.25 2 0
2.4 2 0
2.55 2 0
2.7 2 0
2.85 2 0
3 2 0
3.15 2 0
3.3 2 0
3.45 2 0
3.6 2 0
3.75 2 0
3.9 2 0
4.05 2 0
4.2 2 0
4.35 2 0
4.5 2 0
4.65 2 0
4.8 2 0
4.95 2 0
5.1 2 0
5.25 2 0
5.4 2 0
5.55 2 0
5.7 2 0
5.85 2 0
6 2 0
0 2.25 0
0.15 2.25 0
0.3 2.25 0
0.45 2.25 0
0.6 2.25 0
0.75 2.25 0
0.9 2.25 0
1.05 2.25 0
1.2 2.25 0
1.35 2.25 0
1.5 2.25 0
1.65 2.25 0
1.8 2.25 0
1.95 2.25 0
2.1 2.25 0
2.25 2.25 0
2.4 2.25 0
2.55 2.25 0
2.7 2.25 0
2.85 2.25 0
3 2.25 0
3.15 2.25 0
3.3 2.25 0
3.45 2.25 0
3.6 2.25 0
3.75 2.25 0
3.9 2.25 0
4.05 2.25 0
4.2 2.25 0
4.35 2.25 0
4.5 2.25 0
4.65 2.25 0
4.8 2.25 0
4.95 2.25 0
5.1 2.25 0
5.25 2.25 0
5.4 2.25 0
5.55 2.25 0
5.7 2.25 0
5.85 2.25 0
6 2.25 0
0 2.5 0
0.15 2.5 0
0.3 2.5 0
0.45 2.5 0
0.6 2.5 0
0.75 2.5 0
0.9 2.5 0
1.05 2.5 0
1.2 2.5 0
1.35 2.5 0
1.5 2.5 0
1.65 2.5 0
1.8 2.5 0
1.95 2.5 0
2.1 2.5 0
2.25 2.5 0
2.4 2.5 0
2.55 2.5 0
2.7 2.5 0
2.85 2.5 0
3 2.5 0
3.15 2.5 0
3.3 2.5 0
3.45 2.5 0
3.6 2.5 0
3.75 2.5 0
3.9 2.5 0
4.05 2.5 0
4.2 2.5 0
4.35 2.5 0
4.5 2.5 0
4.65 2.5 0
4.8 2.5 0
4.95 2.5 0
5.1 2.5 0
5.25 2.5 0
5.4 2.5 0
5.55 2.5 0
5.7 2.5 0
5.85 2.5 0
6 2.5 0
0 2.75 0
0.15 2.75 0
0.3 2.75 0
0.45 2.75 0
0.6 2.75 0
0.75 2.75 0
0.9 2.75 0
1.05 2.75 0
1.2 2.75 0
1.35 2.75 0
1.5 2.75 0
1.65 2.75 0
1.8 2.75 0
1.95 2.75 0
2.1 2.75 0
2.25 2.75 0
2.4 2.75 0
2.55 2.75 0
2.7 2.75 0
2.85 2.75 0
3 2.75 0
3.15 2.75 0
3.3 2.75 0
3.45 2.75 0
3.6 2.75 0
3.75 2.75 0
3.9 2.75 0
4.05 2.75 0
4.2 2.75 0
4.35 2.75 0
4.5 2.75 0
4.65 2.75 0
4.8 2.75 0
4.95 2.75 0
5.1 2.75 0
5.25 2.75 0
5.4 2.75 0
5.55 2.75 0
5.7 2.75 0
5.85 2.75 0
6 2.75 0
0 3 0
0.15 3 0
0.3 3 0
0.45 3 0
0.6 3 0
0.75 3 0
0.9 3 0
1.05 3 0
1.2 3 0
1.35 3 0
1.5 3 0
1.65 3 0
1.8 3 0
1.95 3 0
2.1 3 0
2.25 3 0
2.4 3 0
2.55 3 0
2.7 3 0
2.85 3 0
3 3 0
3.15 3 0
3.3 3 0
3.45 3 0
3.6 3 0
3.75 3 0
3.9 3 0
4.05 3 0
4.2 3 0
4.35 3 0
4.5 3 0
4.65 3 0
4.8 3 0
4.95 3 0
5.1 3 0
5.25 3 0
5.4 3 0
5.55 3 0
5.7 3 0
5.85 3 0
6 3 0
0 3.25 0
0.15 3.25 0
0.3 3.25 0
0.45 3.25 0
0.6 3.25 0
0.75 3.25 0
0.9 3.25 0
1.05 3.25 0
1.2 3.25 0
1.35 3.25 0
1.5 3.25 0
1.65 3.25 0
1.8 3.25 0
1.95 3.25 0
2.1 3.25 0
2.25 3.25 0
2.4 3.25 0
2.55 3.25 0
2.7 3.25 0
2.85 3.25 0
3 3.25 0
3.15 3.25 0
3.3 3.25 0
3.45 3.25 0
3.6 3.25 0
3.75 3.25 0
3.9 3.25 0
4.05 3.25 0
4.2 3.25 0
4.35 3.25 0
4.5 3.25 0
4.65 3.25 0
4.8 3.25 0
4.95 3.25 0
5.1 3.25 0
5.25 3.25 0
5.4 3.25 0
5.55 3.25 0
5.7 3.25 0
5.85 3.25 0
6 3.25 0
0 3.5 0
0.15 3.5 0
0.3 3.5 0
0.45 3.5 0
0.6 3.5 0
0.75 3.5 0
0.9 3.5 0
1.05 3.5 0
1.2 3.5 0
1.35 3.5 0
1.5 3.5 0
1.65 3.5 0
1.8 3.5 0
1.95 3.5 0
2.1 3.5 0
2.25 3.5 0
2.4 3.5 0
2.55 3.5 0
2.7 3.5 0
2.85 3.5 0
3 3.5 0
3.15 3.5 0
3.3 3.5 0
3.45 3.5 0
3.6 3.5 0
3.75 3.5 0
3.9 3.5 0
4.05 3.5 0
4.2 3.5 0
4.35 3.5 0
4.5 3.5 0
4.65 3.5 0
4.8 3.5 0
4.95 3.5 0
5.1 3.5 0
5.25 3.5 0
5.4 3.5 0
5.55 3.5 0
5.7 3.5 0
5.85 3.5 0
6 3.5 0
0 3.75 0
0.15 3.75 0
0.3 3.75 0
0.45 3.75 0
0.6 3.75 0
0.75 3.75 0
0.9 3.75 0
1.05 3.75 0
1.2 3.75 0
1.35 3.75 0
1.5 3.75 0
1.65 3.75 0
1.8 3.75 0
1.95 3.75 0
2.1 3.75 0
2.25 3.75 0
2.4 3.75 0
2.55 3.75 0
2.7 3.75 0
2.85 3.75 0
3 3.75 0
3.15 3.75 0
3.3 3.75 0
3.45 3.75 0
3.6 3.75 0
3.75 3.75 0
3.9 3.75 0
4.05 3.75 0
4.2 3.75 0
4.35 3.75 0
4.5 3.75 0
4.65 3.75 0
4.8 3.75 0
4.95 3.75 0
5.1 3.75 0
5.25 3.75 0
5.4 3.75 0
5.55 3.75 0
5.7 3.75 0
5.85 3.75 0
6 3.75 0
0 4 0
0.15 4 0
0.3 4 0
0.45 4 0
0.6 4 0
0.75 4 0
0.9 4 0
1.05 4 0
1.2 4 0
1.35 4 0
1.5 4 0
1.65 4 0
1.8 4 0
1.95 4 0
2.1 4 0
2.25 4 0
2.4 4 0
2.55 4 0
2.7 4 0
2.85 4 0
3 4 0
3.15 4 0
3.3 4 0
3.45 4 0
3.6 4 0
3.75 4 0
3.9 4 0
4.05 4 0
4.2 4 0
4.35 4 0
4.5 4 0
4.65 4 0
4.8 4 0
4.95 4 0
5.1 4 0
5.25 4 0
5.4 4 0
5.55 4 0
5.7 4 0
5.85 4 0
6 4 0
0 4.25 0
0.15 4.25 0
0.3 4.25 0
0.45 4.25 0
0.6 4.25 0
0.75 4.25 0
0.9 4.25 0
1.05 4.25 0
1.2 4.25 0
1.35 4.25 0
1.5 4.25 0
1.65 4.25 0
1.8 4.25 0
1.95 4.25 0
2.1 4.25 0
2.25 4.25 0
2.4 4.25 0
2.55 4.25 0
2.7 4.25 0
2.85 4.25 0
3 4.25 0
3.15 4.25 0
3.3 4.25 0
3.45 4.25 0
3.6 4.25 0
3.75 4.25 0
3.9 4.25 0
4.05 4.25 0
4.2 4.25 0
4.35 4.25 0
4.5 4.25 0
4.65 4.25 0
4.8 4.25 0
4.95 4.25 0
5.1 4.25 0
5.25 4.25 0
5.4 4.25 0
5.55 4.25 0
5.7 4.25 0
5.85 4.25 0
6 4.25 0
0 4.5 0
0.15 4.5 0
0.3 4.5 0
0.45 4.5 0
0.6 4.5 0
0.75 4.5 0
0.9 4.5 0
1.05 4.5 0
1.2 4.5 0
1.35 4.5 0
1.5 4.5 0
1.65 4.5 0
1.8 4.5 0
1.95 4.5 0
2.1 4.5 0
2.25 4.5 0
2.4 4.5 0
2.55 4.5 0
2.7 4.5 0
2.85 4.5 0
3 4.5 0
3.15 4.5 0
3.3 4.5 0
3.45 4.5 0
3.6 4.5 0
3.75 4.5 0
3.9 4.5 0
4.05 4.5 0
4.2 4.5 0
4.35 4.5 0
4.5 4.5 0
4.65 4.5 0
4.8 4.5 0
4.95 4.5 0
5.1 4.5 0
5.25 4.5 0
5.4 4.5 0
5.55 4.5 0
5.7 4.5 0
5.85 4.5 0
6 4.5 0
0 4.75 0
0.15 4.75 0
0.3 4.75 0
0.45 4.75 0
0.6 4.75 0
0.75 4.75 0
0.9 4.75 0
1.05 4.75 0
1.2 4.75 0
1.35 4.75 0
1.5 4.75 0
1.65 4.75 0
1.8 4.75 0
1.95 4.75 0
2.1 4.75 0
2.25 4.75 0
2.4 4.75 0
2.55 4.75 0
2.7 4.75 0
2.85 4.75 0
3 4.75 0
3.15 4.75 0
3.3 4.75 0
3.45 4.75 0
3.6 4.75 0
3.75 4.75 0
3.9 4.75 0
4.05 4.75 0
4.2 4.75 0
4.35 4.75 0
4.5 4.75 0
4.65 4.75 0
4.8 4.75 0
4.95 4.75 0
5.1 4.75 0
5.25 4.75 0
5.4 4.75 0
5.55 4.75 0
5.7 4.75 0
5.85 4.75 0
6 4.75 0
0 5 0
0.15 5 0
0.3 5 0
0.45 5 0
0.6 5 0
0.75 5 0
0.9 5 0
1.05 5 0
1.2 5 0
1.35 5 0
1.5 5 0
1.65 5 0
1.8 5 0
1.95 5 0
2.1 5 0
2.25 5 0
2.4 5 0
2.55 5 0
2.7 5 0
2.85 5 0
3 5 0
3.15 5 0
3.3 5 0
3.45 5 0
3.6 5 0
3.75 5 0
3.9 5 0
4.05 5 0
4.2 5 0
4.35 5 0
4.5 5 0
4.65 5 0
4.8 5 0
4.95 5 0
5.1 5 0
5.25 5 0
5.4 5 0
5.55 5 0
5.7 5 0
5.85 5 0
6 5 0

CELL_DATA 800
SCALARS phi float
LOOKUP_TABLE default 
4.711
4.711
4.711
4.711
4.711
4.711
4.711
4.711
4.711
4.711
4.711
4.711
4.711
4.711
4.711
4.711
4.711
4.711
4.711
4.711
4.711
4.711
4.711
4.711
4.711
4.711
4.711
4.711
4.711
4.711
4.711
4.711
4.711
4.711
4.711
4.711
4.711
4.711
4.711
4.711
4.711
4.711
4.711
4.711
4.711
4.711
4.711
4.711
4.711
4.711
4.711
4.711
4.711
4.711
4.711
4.711
4.711
4.711
4.711
4.711
4.711
4.711
4.711
4.711
4.711
4.711
4.711
4.711
4.711
4.711
4.711
4.711
4.711
4.711
4.711
4.711
4.711
4.711
4.711
4.711
4.711
4.711
4.711
4.711
4.711
4.711
4.711
4.711
4.711
4.711
4.711
4.711
4.711
4.711
4.711
4.711
4.711
4.711
4.711
4.711
4.711
4.711
4.711
4.711
4.711
4.711
4.711
4.711
4.711
4.711
4.711
4.711
4.711
4.711
4.711
4.711
4.711
4.711
4.711
4.711
4.711
4.711
4.711
4.711
4.711
4.711
4.711
4.711
4.711
4.711
4.711
4.711
4.711
4.711
4.711
4.711
4.711
4.711
4.711
4.711
4.711
4.711
4.711
4.711
4.711
4.711
4.711
4.711
4.711
4.711
4.711
4.711
4.711
4.711
4.711
4.711
4.711
4.711
4.711
4.711
4.711
4.711
4.711
4.711
4.711
4.711
4.711
4.711
4.711
4.711
4.711
4.711
4.711
4.711
4.711
4.711
4.711
4.711
4.711
4.711
4.711
4.711
4.711
4.711
4.711
4.711
4.711
4.711
4.711
4.711
4.711
4.711
4.711
4.711
4.711
4.711
4.711
4.711
4.711
4.711
4.711
4.711
4.711
4.711
4.711
4.711
4.711
4.711
4.711
4.711
4.711
4.711
4.711
4.711
4.711
4.711
4.711
4.711
4.711
4.711
4.711
4.711
4.711
4.711
4.711
4.711
4.711
4.711
4.711
4.711
4.711
4.711
4.711
4.711
4.711
4.711
4.711
4.711
4.711
4.711
4.711
4.711
4.711
4.711
4.711
4.711
4.711
4.711
4.711
4.711
4.711
4.711
4.711
4.711
4.711
4.711
4.711
4.711
4.711
4.711
4.711
4.711
4.711
4.711
4.711
4.711
4.711
4.711
4.711
4.711
4.711
4.711
4.711
4.711
4.711
4.711
4.711
4.711
4.711
4.711
4.711
4.711
4.711
4.711
4.711
4.711
4.711
4.711
4.711
4.711
4.711
4.711
4.711
4.711
4.711
4.711
4.711
4.711
4.711
4.711
4.711
4.711
4.711
4.711
4.711
4.711
4.711
4.711
4.711
4.711
4.711
4.711
4.711
4.711
4.711
4.711
4.711
4.711
4.711
4.711
4.711
4.711
4.711
4.711
4.711
4.711
4.711
4.711
4.711
4.711
4.711
4.711
4.711
4.711
4.711
4.711
4.711
4.711
4.711
4.711
4.711
4.711
4.711
4.711
4.711
4.711
4.711
4.711
4.711
4.711
4.711
4.711
4.711
4.711
4.711
4.711
4.711
4.711
4.711
4.711
4.711
4.711
4.711
4.711
4.711
4.711
4.711
4.711
4.711
4.711
4.711
4.711
4.711
4.711
4.711
4.711
4.711
4.711
4.711
4.711
4.711
4.711
4.711
4.711
4.711
4.711
4.711
4.711
4.711
4.711
4.711
4.711
4.711
4.711
4.711
4.711
4.711
4.711
4.711
4.711
4.711
4.711
4.711
4.711
4.711
4.711
4.711
4.711
4.711
4.711
4.711
4.711
4.711
4.711
4.711
4.711
4.711
4.711
4.711
4.711
4.711
4.711
4.711
4.711
4.711
4.711
4.711
4.711
4.711
4.711
4.711
4.711
4.711
4.711
4.711
4.711
4.711
4.711
4.711
4.711
4.711
4.711
4.711
4.711
4.711
4.711
4.711
4.711
4.711
4.711
4.711
4.711
4.711
4.711
4.711
4.711
4.711
4.711
4.711
4.711
4.711
4.711
4.711
4.711
4.711
4.711
4.711
4.711
4.711
4.711
4.711
4.711
4.711
4.711
4.711
4.711
4.711
4.711
4.711
4.711
4.711
4.711
4.711
4.711
4.711
4.711
4.711
4.711
4.711
4.711
4.711
4.711
4.711
4.711
4.711
4.711
4.711
4.711
4.711
4.711
4.711
4.711
4.711
4.711
4.711
4.711
4.711
4.711
4.711
4.711
4.711
4.711
4.711
4.711
4.711
4.711
4.711
4.711
4.711
4.711
4.711
4.711
4.711
4.711
4.711
4.711
4.711
4.711
4.711
4.711
4.711
4.711
4.711
4.711
4.711
4.711
4.711
4.711
4.711
4.711
4.711
4.711
4.711
4.711
4.711
4.711
4.711
4.711
4.711
4.711
4.711
4.711
4.711
4.711
4.711
4.711
4.711
4.711
4.711
4.711
4.711
4.711
4.711
4.711
4.711
4.711
4.711
4.711
4.711
4.711
4.711
4.711
4.711
4.711
4.711
4.711
4.711
4.711
4.711
4.711
4.711
4.711
4.711
4.711
4.711
4.711
4.711
4.711
4.711
4.711
4.711
4.711
4.711
4.711
4.711
4.711
4.711
4.711
4.711
4.711
4.711
4.711
4.711
4.711
4.711
4.711
4.711
4.711
4.711
4.711
4.711
4.711
4.711
4.711
4.711
4.711
4.711
4.711
4.711
4.711
4.711
4.711
4.711
4.711
4.711
4.711
4.711
4.711
4.711
4.711
4.711
4.711
4.711
4.711
4.711
4.711
4.711
4.711
4.711
4.711
4.711
4.711
4.711
4.711
4.711
4.711
4.711
4.711
4.711
4.711
4.711
4.711
4.711
4.711
4.711
4.711
4.711
4.711
4.711
4.711
4.711
4.711
4.711
4.711
4.711
4.711
4.711
4.711
4.711
4.711
4.711
4.711
4.711
4.711
4.711
4.711
4.711
4.711
4.711
4.711
4.711
4.711
4.711
4.711
4.711
4.711
4.711
4.711
4.711
4.711
4.711
4.711
4.711
4.711
4.711
4.711
4.711
4.711
4.711
4.711
4.711
4.711
4.711
4.711
4.711
4.711
4.711
4.711
4.711
4.711
4.711
4.711
4.711
4.711
4.711
4.711
4.711
4.711
4.711
4.711
4.711
4.711
4.711
4.711
4.711
4.711
4.711
4.711
4.711
4.711
4.711
4.711
4.711
4.711
4.711
4.711
4.711
4.711
4.711
4.711
4.711
4.711
4.711
4.711
4.711
4.711
4.711
4.711
4.711
4.711
4.711
4.711
4.711
4.711
4.711
4.711
4.711
4.711
4.711
4.711
4.711
4.711
4.711
4.711
4.711
4.711
4.711
4.711
4.711
4.711
4.711
4.711
4.711
4.711
4.711
4.711
4.711
4.711
4.711
4.711
4.711
4.711
4.711
4.711
4.711
4.711
4.711
4.711
4.711
4.711
4.711
4.711
4.711
4.711
4.711
4.711
4.711
4.711
4.711
4.711

SCALARS p float
LOOKUP_TABLE default 
125.848
125.848
125.696
125.625
125.632
125.728
125.728
0
0
0
-57.2118
-57.2119
-57.6386
-58.3167
-59.0613
-59.6117
-59.6096
-58.8196
-56.9602
-53.8086
-49.4191
-44.0624
-38.1239
-32.0086
-26.0681
-20.5597
-15.6336
-11.3436
-7.66549
-4.52844
-1.83622
0.401527
2.27131
3.84871
5.1974
6.36965
7.40765
8.34524
9.21093
10
125.848
125.848
125.696
125.625
125.632
125.728
125.728
0
0
0
-57.2119
-57.2119
-57.6386
-58.3167
-59.0613
-59.6117
-59.6096
-58.8196
-56.9602
-53.8086
-49.4191
-44.0624
-38.1239
-32.0086
-26.0681
-20.5597
-15.6336
-11.3436
-7.66549
-4.52844
-1.83622
0.401527
2.27131
3.84871
5.1974
6.36965
7.40765
8.34524
9.21093
10
125.226
125.226
125.098
125.073
125.133
125.305
125.305
0
0
0
-58.2981
-58.2981
-58.9256
-59.9028
-61.0955
-62.2184
-62.8918
-62.6955
-61.1166
-57.7404
-52.8211
-46.8146
-40.2329
-33.5489
-27.1416
-21.2693
-16.0717
-11.6068
-7.68922
-4.41383
-1.70191
0.538962
2.39925
3.95954
5.28772
6.43914
7.45807
8.37981
9.23401
10
123.398
123.398
123.248
123.228
123.308
123.533
123.533
0
0
0
-60.4117
-60.4117
-61.3787
-62.9706
-64.9684
-66.9919
-68.4931
-68.8551
-67.4627
-63.6368
-57.9072
-50.9635
-43.4599
-35.9482
-28.8472
-22.4243
-16.7145
-11.783
-7.65592
-4.25789
-1.48567
0.772058
2.62095
4.1534
5.44589
6.55955
7.54218
8.43116
9.25705
10
119.7
119.7
119.462
119.312
119.241
119.376
119.376
0
0
0
-62.2715
-62.2715
-63.4975
-65.7452
-68.6923
-71.8459
-74.4562
-75.5922
-74.1586
-69.6634
-62.9677
-54.9947
-46.4901
-38.0887
-30.2076
-23.107
-16.9193
-11.681
-7.35569
-3.84927
-1.03785
1.21007
3.0179
4.49218
5.71962
6.76781
7.68808
8.51906
9.29104
10
113.777
113.777
113.306
112.664
111.886
111.361
111.361
0
0
0
-62.6219
-62.6219
-63.8164
-66.4788
-70.2611
-74.5395
-78.357
-80.39
-78.7045
-73.5426
-65.9358
-57.0068
-47.6649
-38.5704
-30.155
-22.6703
-16.2314
-10.8517
-6.46935
-2.97134
-0.216563
1.94281
3.64487
5.00796
6.12692
7.0739
7.9018
8.64859
9.34238
10
106.056
106.056
105.097
103.197
100.112
96.1994
96.1994
-0.850652
-26.5997
-43.8968
-62.1808
-62.1808
-62.2707
-64.8084
-69.2035
-74.4218
-79.1049
-81.2873
-78.6101
-72.7627
-64.6533
-55.3497
-45.7536
-36.5166
-28.0578
-20.6117
-14.2745
-9.04179
-4.83703
-1.53499
1.016
2.97361
4.4844
5.67284
6.63687
7.4489
8.15981
8.80405
9.40512
10
98.2053
98.2053
96.6851
93.0012
85.5985
71.4183
44.4823
-0.850652
-26.5997
-43.8968
-54.7937
-57.2548
-59.0127
-62.3975
-67.2992
-72.7693
-77.0524
-76.7567
-73.3468
-67.2307
-59.2171
-50.2119
-41.0075
-32.1988
-24.1791
-17.171
-11.2633
-6.44564
-2.6355
0.298148
2.51263
4.17043
5.4211
6.38929
7.17029
7.83161
8.41802
8.95749
9.46683
10
92.6051
92.6051
91.1648
87.5097
80.2109
66.9456
45.1306
16.3132
-8.94403
-28.4321
-41.8825
-50.0226
-55.617
-60.516
-65.2555
-69.1847
-70.4767
-69.2629
-65.5121
-59.5954
-52.1403
-43.8594
-35.4112
-27.3223
-19.9628
-13.5541
-8.19174
-3.87128
-0.512978
2.0149
3.87247
5.22481
6.22166
6.98449
7.60235
8.13488
8.61882
9.07476
9.51269
10
90.1558
90.1558
89.2021
86.6921
81.5892
72.0658
55.866
32.6996
8.16258
-13.4492
-30.2654
-42.3416
-50.958
-57.3422
-62.0151
-64.672
-65.2276
-63.6543
-59.9689
-54.4615
-47.621
-40.0246
-32.235
-24.7283
-17.8588
-11.8527
-6.81854
-2.76607
0.372388
2.71921
4.42752
5.65712
6.55359
7.23486
7.78671
8.26568
8.70556
9.12432
9.52959
10
90.1558
90.1558
89.2021
86.6921
81.5892
72.0658
55.866
32.6996
8.16258
-13.4492
-30.2654
-42.3416
-50.958
-57.3422
-62.0151
-64.672
-65.2276
-63.6543
-59.9689
-54.4615
-47.621
-40.0246
-32.235
-24.7283
-17.8588
-11.8527
-6.81854
-2.76607
0.372388
2.71921
4.42752
5.65712
6.55359
7.23486
7.78671
8.26568
8.70556
9.12432
9.52959
10
92.6051
92.6051
91.1648
87.5097
80.2109
66.9456
45.1306
16.3132
-8.94403
-28.4321
-41.8825
-50.0226
-55.617
-60.516
-65.2555
-69.1847
-70.4767
-69.2629
-65.5121
-59.5954
-52.1403
-43.8594
-35.4112
-27.3223
-19.9628
-13.5541
-8.19174
-3.87128
-0.512978
2.0149
3.87247
5.22481
6.22166
6.98449
7.60235
8.13488
8.61882
9.07476
9.51269
10
98.2053
98.2053
96.6851
93.0012
85.5985
71.4183
44.4823
-0.850652
-26.5997
-43.8968
-54.7937
-57.2548
-59.0127
-62.3975
-67.2992
-72.7693
-77.0524
-76.7567
-73.3468
-67.2307
-59.2171
-50.2119
-41.0075
-32.1988
-24.1791
-17.171
-11.2633
-6.44564
-2.6355
0.298148
2.51263
4.17043
5.4211
6.38929
7.17029
7.83161
8.41802
8.95749
9.46683
10
106.056
106.056
105.097
103.197
100.112
96.1994
96.1994
-0.850652
-26.5997
-43.8968
-62.1808
-62.1808
-62.2707
-64.8084
-69.2035
-74.4218
-79.1049
-81.2873
-78.6101
-72.7627
-64.6533
-55.3497
-45.7536
-36.5166
-28.0578
-20.6117
-14.2745
-9.04179
-4.83703
-1.53499
1.016
2.97361
4.4844
5.67284
6.63687
7.4489
8.15981
8.80405
9.40512
10
113.777
113.777
113.306
112.664
111.886
111.361
111.361
0
0
0
-62.6219
-62.6219
-63.8164
-66.4788
-70.2611
-74.5395
-78.357
-80.39
-78.7045
-73.5426
-65.9358
-57.0068
-47.6649
-38.5704
-30.155
-22.6703
-16.2314
-10.8517
-6.46935
-2.97134
-0.216563
1.94281
3.64487
5.00796
6.12692
7.0739
7.9018
8.64859
9.34238
10
119.7
119.7
119.462
119.312
119.241
119.376
119.376
0
0
0
-62.2715
-62.2715
-63.4975
-65.7452
-68.6923
-71.8459
-74.4562
-75.5922
-74.1586
-69.6634
-62.9677
-54.9947
-46.4901
-38.0887
-30.2076
-23.107
-16.9193
-11.681
-7.35569
-3.84927
-1.03785
1.21007
3.0179
4.49218
5.71962
6.76781
7.68808
8.51906
9.29104
10
123.398
123.398
123.248
123.228
123.308
123.533
123.533
0
0
0
-60.4117
-60.4117
-61.3787
-62.9706
-64.9684
-66.9919
-68.4931
-68.8551
-67.4627
-63.6368
-57.9072
-50.9635
-43.4599
-35.9482
-28.8472
-22.4243
-16.7145
-11.783
-7.65592
-4.25789
-1.48567
0.772058
2.62095
4.1534
5.44589
6.55955
7.54218
8.43116
9.25705
10
125.226
125.226
125.098
125.073
125.133
125.305
125.305
0
0
0
-58.2981
-58.2981
-58.9256
-59.9028
-61.0955
-62.2184
-62.8918
-62.6955
-61.1166
-57.7404
-52.8211
-46.8146
-40.2329
-33.5489
-27.1416
-21.2693
-16.0717
-11.6068
-7.68922
-4.41383
-1.70191
0.538962
2.39925
3.95954
5.28772
6.43914
7.45807
8.37981
9.23401
10
125.848
125.848
125.696
125.625
125.632
125.728
125.728
0
0
0
-57.2119
-57.2119
-57.6386
-58.3167
-59.0613
-59.6117
-59.6096
-58.8196
-56.9602
-53.8086
-49.4191
-44.0624
-38.1239
-32.0086
-26.0681
-20.5597
-15.6336
-11.3436
-7.66549
-4.52844
-1.83622
0.401527
2.27131
3.84871
5.1974
6.36965
7.40765
8.34524
9.21093
10
125.848
125.848
125.696
125.625
125.632
125.728
125.728
0
0
0
-57.2118
-57.2119
-57.6386
-58.3167
-59.0613
-59.6117
-59.6096
-58.8196
-56.9602
-53.8086
-49.4191
-44.0624
-38.1239
-32.0086
-26.0681
-20.5597
-15.6336
-11.3436
-7.66549
-4.52844
-1.83622
0.401527
2.27131
3.84871
5.1974
6.36965
7.40765
8.34524
9.21093
10

SCALARS  u float
LOOKUP_TABLE default 
0.0119792
0.00785369
0.00750479
0.00642562
0.00469583
0.00258324
0
0
0
0
0
-0.00537298
-0.0100784
-0.0148759
-0.0194826
-0.023649
-0.0270349
-0.0294845
-0.0309308
-0.031297
-0.0305839
-0.0288937
-0.0263701
-0.0231768
-0.0195014
-0.0155571
-0.0115683
-0.00773366
-0.00420746
-0.0010258
0.0017176
0.00401051
0.00591337
0.00747051
0.00872825
0.00973167
0.0105215
0.0111285
0.011557
0.011557
0.0450666
0.0427343
0.0391523
0.0328262
0.024176
0.0143261
0.00225388
0
0
0
-0.0041435
-0.0229904
-0.0407474
-0.0595158
-0.077604
-0.0938554
-0.106936
-0.115835
-0.120115
-0.119947
-0.115501
-0.107395
-0.0963688
-0.0831475
-0.0684235
-0.0528846
-0.0372281
-0.0220852
-0.00802119
0.00454388
0.0154788
0.0247463
0.032472
0.0388159
0.0439562
0.04807
0.0513218
0.0538496
0.0557305
0.0560948
0.072013
0.0689352
0.0633664
0.0541634
0.04151
0.0261787
0.00468733
0
0
0
-0.00439417
-0.0211579
-0.0362706
-0.0523044
-0.0676044
-0.0809905
-0.0912235
-0.0971411
-0.0972472
-0.0931427
-0.0856962
-0.0759762
-0.0648316
-0.0528093
-0.0401757
-0.0270097
-0.0133936
0.000448261
0.0140133
0.0266876
0.0381909
0.0483278
0.0570492
0.0644196
0.0705571
0.0756005
0.0796887
0.0829425
0.0854248
0.0859669
0.0953166
0.0915334
0.0845895
0.0733947
0.0579058
0.0383041
0.00731579
0
0
0
-0.00295964
-0.0115501
-0.0188797
-0.0275971
-0.0363257
-0.0440656
-0.0495165
-0.0515335
-0.0480359
-0.0410119
-0.0318146
-0.021823
-0.0119621
-0.00276526
0.00558783
0.0133198
0.0209842
0.0291606
0.0380159
0.0472546
0.0563136
0.0647153
0.0721793
0.0786124
0.0840406
0.0885473
0.0922338
0.0951929
0.0974757
0.0979946
0.115314
0.111532
0.10453
0.0928795
0.0759095
0.0526062
0.01048
0
0
0
-0.000820908
0.00130592
0.00444496
0.00592115
0.00618738
0.00596052
0.00660979
0.0101406
0.0179005
0.027503
0.0375137
0.046817
0.0547569
0.0609353
0.0651436
0.0674611
0.0684564
0.0691505
0.0706081
0.0734481
0.0775358
0.0822455
0.0869367
0.0912066
0.0948881
0.0979597
0.100466
0.102467
0.104001
0.104349
0.132074
0.129373
0.124558
0.115464
0.0999813
0.0737212
0.0150429
0
0
0
0.00193188
0.0203351
0.0342511
0.0475473
0.0591049
0.069046
0.0782984
0.0898755
0.102254
0.113113
0.121836
0.128238
0.132384
0.134356
0.134128
0.131605
0.126838
0.120399
0.113591
0.108055
0.104839
0.103869
0.104353
0.10547
0.106701
0.107807
0.108716
0.109425
0.109945
0.110056
0.145628
0.145352
0.145947
0.144837
0.138937
0.121108
0.0884376
0.086763
0.0900047
0.0920788
0.101319
0.11774
0.125222
0.137065
0.15039
0.164253
0.179026
0.196806
0.210731
0.219271
0.222993
0.22298
0.220195
0.215327
0.20873
0.200405
0.1901
0.177668
0.163675
0.149754
0.137997
0.129635
0.124444
0.121404
0.119552
0.118297
0.117353
0.1166
0.11599
0.115835
0.15594
0.158753
0.16691
0.179029
0.194148
0.212791
0.262987
0.30928
0.321128
0.32815
0.329729
0.320579
0.312213
0.309047
0.311756
0.319419
0.330786
0.341362
0.345575
0.343695
0.336817
0.326357
0.31359
0.299482
0.284605
0.269095
0.25264
0.234672
0.214888
0.194044
0.174242
0.157867
0.145957
0.137894
0.132428
0.128536
0.125615
0.123356
0.121613
0.121196
0.162847
0.167404
0.180238
0.201855
0.232599
0.273502
0.332082
0.388484
0.424669
0.448123
0.462214
0.469549
0.474351
0.478618
0.482983
0.486975
0.488889
0.485186
0.475926
0.461726
0.443636
0.422856
0.400522
0.377566
0.354625
0.331941
0.309293
0.286024
0.261366
0.235203
0.208923
0.185258
0.166523
0.153087
0.143789
0.137229
0.132418
0.12879
0.126053
0.12541
0.166253
0.170747
0.183765
0.20769
0.24446
0.29512
0.358855
0.422843
0.474352
0.512045
0.537983
0.555437
0.567715
0.576718
0.582734
0.585004
0.58226
0.57402
0.560336
0.54176
0.519187
0.49369
0.466363
0.438191
0.409946
0.382064
0.354536
0.326858
0.298192
0.267951
0.23682
0.207332
0.182668
0.164348
0.151625
0.142832
0.136572
0.131978
0.128582
0.127795
0.166253
0.170747
0.183765
0.20769
0.24446
0.29512
0.358855
0.422843
0.474352
0.512045
0.537983
0.555437
0.567715
0.576718
0.582734
0.585004
0.58226
0.57402
0.560336
0.54176
0.519187
0.49369
0.466363
0.438191
0.409946
0.382064
0.354536
0.326858
0.298192
0.267951
0.23682
0.207332
0.182668
0.164348
0.151625
0.142832
0.136572
0.131978
0.128582
0.127795
0.162847
0.167404
0.180238
0.201855
0.232599
0.273502
0.332082
0.388484
0.424669
0.448123
0.462214
0.469549
0.474351
0.478618
0.482983
0.486975
0.488889
0.485186
0.475926
0.461726
0.443636
0.422856
0.400522
0.377566
0.354625
0.331941
0.309293
0.286024
0.261366
0.235203
0.208923
0.185258
0.166523
0.153087
0.143789
0.137229
0.132418
0.12879
0.126053
0.12541
0.15594
0.158753
0.16691
0.179029
0.194148
0.212791
0.262987
0.30928
0.321128
0.32815
0.329729
0.320579
0.312213
0.309047
0.311756
0.319419
0.330786
0.341362
0.345575
0.343695
0.336817
0.326357
0.31359
0.299482
0.284605
0.269095
0.25264
0.234672
0.214888
0.194044
0.174242
0.157867
0.145957
0.137894
0.132428
0.128536
0.125615
0.123356
0.121613
0.121196
0.145628
0.145352
0.145947
0.144837
0.138937
0.121108
0.0884376
0.086763
0.0900047
0.0920788
0.101319
0.11774
0.125222
0.137065
0.15039
0.164253
0.179026
0.196806
0.210731
0.219271
0.222993
0.22298
0.220195
0.215327
0.20873
0.200405
0.1901
0.177668
0.163675
0.149754
0.137997
0.129635
0.124444
0.121404
0.119552
0.118297
0.117353
0.1166
0.11599
0.115835
0.132074
0.129373
0.124558
0.115464
0.0999813
0.0737212
0.0150429
0
0
0
0.00193188
0.0203351
0.0342511
0.0475473
0.0591049
0.069046
0.0782984
0.0898755
0.102254
0.113113
0.121836
0.128238
0.132384
0.134356
0.134128
0.131605
0.126838
0.120399
0.113591
0.108055
0.104839
0.103869
0.104353
0.10547
0.106701
0.107807
0.108716
0.109425
0.109945
0.110056
0.115314
0.111532
0.10453
0.0928795
0.0759095
0.0526062
0.01048
0
0
0
-0.000820908
0.00130592
0.00444496
0.00592115
0.00618738
0.00596052
0.00660979
0.0101406
0.0179005
0.027503
0.0375137
0.046817
0.0547569
0.0609353
0.0651436
0.0674611
0.0684564
0.0691505
0.0706081
0.0734481
0.0775358
0.0822455
0.0869367
0.0912066
0.0948881
0.0979597
0.100466
0.102467
0.104001
0.104349
0.0953166
0.0915334
0.0845895
0.0733947
0.0579058
0.0383041
0.00731579
0
0
0
-0.00295964
-0.0115501
-0.0188797
-0.0275971
-0.0363257
-0.0440656
-0.0495165
-0.0515335
-0.0480359
-0.0410119
-0.0318146
-0.021823
-0.0119621
-0.00276526
0.00558783
0.0133198
0.0209842
0.0291606
0.0380159
0.0472546
0.0563136
0.0647153
0.0721793
0.0786124
0.0840406
0.0885473
0.0922338
0.0951929
0.0974757
0.0979946
0.072013
0.0689352
0.0633664
0.0541634
0.04151
0.0261787
0.00468733
0
0
0
-0.00439417
-0.0211579
-0.0362706
-0.0523044
-0.0676044
-0.0809905
-0.0912235
-0.0971411
-0.0972472
-0.0931427
-0.0856962
-0.0759762
-0.0648316
-0.0528093
-0.0401757
-0.0270097
-0.0133936
0.000448261
0.0140133
0.0266876
0.0381909
0.0483278
0.0570492
0.0644196
0.0705571
0.0756005
0.0796887
0.0829425
0.0854248
0.0859669
0.0450666
0.0427343
0.0391523
0.0328262
0.024176
0.0143261
0.00225388
0
0
0
-0.0041435
-0.0229904
-0.0407474
-0.0595158
-0.077604
-0.0938554
-0.106936
-0.115835
-0.120115
-0.119947
-0.115501
-0.107395
-0.0963688
-0.0831475
-0.0684235
-0.0528846
-0.0372281
-0.0220852
-0.00802119
0.00454388
0.0154788
0.0247463
0.032472
0.0388159
0.0439562
0.04807
0.0513218
0.0538496
0.0557305
0.0560948
0.0119792
0.00785369
0.00750479
0.00642562
0.00469583
0.00258324
0
0
0
0
0
-0.00537298
-0.0100784
-0.0148759
-0.0194826
-0.023649
-0.0270349
-0.0294845
-0.0309308
-0.031297
-0.0305839
-0.0288937
-0.0263701
-0.0231768
-0.0195014
-0.0155571
-0.0115683
-0.00773366
-0.00420746
-0.0010258
0.0017176
0.00401051
0.00591337
0.00747051
0.00872825
0.00973167
0.0105215
0.0111285
0.011557
0.011557

SCALARS  v float
LOOKUP_TABLE default 
0
0.000410182
0.000856949
0.00122142
0.00134842
0.00100323
0
0
0
0
0
0.000824055
0.000494226
-0.000485111
-0.00168107
-0.00291712
-0.00411056
-0.00549529
-0.00698925
-0.00834423
-0.00928189
-0.00963184
-0.00937529
-0.00861701
-0.00753065
-0.00630279
-0.00509049
-0.00399877
-0.00307438
-0.00233001
-0.00175793
-0.00132015
-0.000988864
-0.000740231
-0.000554415
-0.000415788
-0.00031282
-0.000238492
-0.000193166
-0.000193166
0.00115511
0.00553468
0.00939866
0.0123182
0.0135645
0.0114182
0.00271425
0
0
0
0.00442325
0.0175383
0.0184069
0.0146151
0.00904072
0.00238476
-0.00519888
-0.0137694
-0.0231933
-0.0324046
-0.0398337
-0.0445036
-0.046161
-0.0450954
-0.0419253
-0.0374051
-0.0322602
-0.0270996
-0.0222869
-0.018012
-0.0143784
-0.011369
-0.00891146
-0.0069313
-0.00535313
-0.00410714
-0.00313408
-0.0023924
-0.0018833
-0.00177886
0.00275164
0.0133172
0.022486
0.0296294
0.0334926
0.0300287
0.00736463
0
0
0
0.0102232
0.0427957
0.0484967
0.0451587
0.0378572
0.0272801
0.0133665
-0.00330917
-0.021614
-0.039471
-0.054378
-0.0649734
-0.0709556
-0.072654
-0.0707542
-0.0661589
-0.0597963
-0.0525309
-0.0451257
-0.0380788
-0.0316212
-0.0259159
-0.0209987
-0.0168388
-0.0133716
-0.0105174
-0.00819586
-0.00634704
-0.00500723
-0.00471658
0.00470082
0.0229473
0.0389712
0.0520014
0.0602909
0.0568125
0.0141158
0
0
0
0.0145812
0.0621233
0.0730607
0.070806
0.0622885
0.04821
0.0283164
0.00334319
-0.0240555
-0.0495181
-0.0700848
-0.0847479
-0.0936052
-0.0972249
-0.0963516
-0.0918662
-0.084767
-0.0761125
-0.0667456
-0.0573849
-0.0485227
-0.0404524
-0.0333139
-0.0271363
-0.0218785
-0.0174599
-0.0137858
-0.0107824
-0.008537
-0.00804853
0.00679556
0.0333602
0.0570803
0.0773129
0.0919892
0.0906157
0.0228378
0
0
0
0.0159462
0.0687513
0.084911
0.0849353
0.0768469
0.0612476
0.0370404
0.00471962
-0.030384
-0.0609229
-0.0845085
-0.101012
-0.110999
-0.11536
-0.115007
-0.110789
-0.103527
-0.0941672
-0.0836156
-0.0726843
-0.0620318
-0.0521207
-0.0432171
-0.0354251
-0.0287347
-0.0230671
-0.0183126
-0.0143807
-0.0113931
-0.0107403
0.0085423
0.0422378
0.0734324
0.102001
0.126116
0.131785
0.0339846
0
0
0
0.0139541
0.0598991
0.0785927
0.0814888
0.0754988
0.0606897
0.0349003
-0.00142782
-0.0394153
-0.070817
-0.0941964
-0.110194
-0.119835