# vtk DataFile Version 3.0
vtk output161
ASCII
DATASET STRUCTURED_GRID
DIMENSIONS 61 41 1
POINTS 2501 float
0 0 0
0.1 0 0
0.2 0 0
0.3 0 0
0.4 0 0
0.5 0 0
0.6 0 0
0.7 0 0
0.8 0 0
0.9 0 0
1 0 0
1.1 0 0
1.2 0 0
1.3 0 0
1.4 0 0
1.5 0 0
1.6 0 0
1.7 0 0
1.8 0 0
1.9 0 0
2 0 0
2.1 0 0
2.2 0 0
2.3 0 0
2.4 0 0
2.5 0 0
2.6 0 0
2.7 0 0
2.8 0 0
2.9 0 0
3 0 0
3.1 0 0
3.2 0 0
3.3 0 0
3.4 0 0
3.5 0 0
3.6 0 0
3.7 0 0
3.8 0 0
3.9 0 0
4 0 0
4.1 0 0
4.2 0 0
4.3 0 0
4.4 0 0
4.5 0 0
4.6 0 0
4.7 0 0
4.8 0 0
4.9 0 0
5 0 0
5.1 0 0
5.2 0 0
5.3 0 0
5.4 0 0
5.5 0 0
5.6 0 0
5.7 0 0
5.8 0 0
5.9 0 0
6 0 0
0 0.1 0
0.1 0.1 0
0.2 0.1 0
0.3 0.1 0
0.4 0.1 0
0.5 0.1 0
0.6 0.1 0
0.7 0.1 0
0.8 0.1 0
0.9 0.1 0
1 0.1 0
1.1 0.1 0
1.2 0.1 0
1.3 0.1 0
1.4 0.1 0
1.5 0.1 0
1.6 0.1 0
1.7 0.1 0
1.8 0.1 0
1.9 0.1 0
2 0.1 0
2.1 0.1 0
2.2 0.1 0
2.3 0.1 0
2.4 0.1 0
2.5 0.1 0
2.6 0.1 0
2.7 0.1 0
2.8 0.1 0
2.9 0.1 0
3 0.1 0
3.1 0.1 0
3.2 0.1 0
3.3 0.1 0
3.4 0.1 0
3.5 0.1 0
3.6 0.1 0
3.7 0.1 0
3.8 0.1 0
3.9 0.1 0
4 0.1 0
4.1 0.1 0
4.2 0.1 0
4.3 0.1 0
4.4 0.1 0
4.5 0.1 0
4.6 0.1 0
4.7 0.1 0
4.8 0.1 0
4.9 0.1 0
5 0.1 0
5.1 0.1 0
5.2 0.1 0
5.3 0.1 0
5.4 0.1 0
5.5 0.1 0
5.6 0.1 0
5.7 0.1 0
5.8 0.1 0
5.9 0.1 0
6 0.1 0
0 0.2 0
0.1 0.2 0
0.2 0.2 0
0.3 0.2 0
0.4 0.2 0
0.5 0.2 0
0.6 0.2 0
0.7 0.2 0
0.8 0.2 0
0.9 0.2 0
1 0.2 0
1.1 0.2 0
1.2 0.2 0
1.3 0.2 0
1.4 0.2 0
1.5 0.2 0
1.6 0.2 0
1.7 0.2 0
1.8 0.2 0
1.9 0.2 0
2 0.2 0
2.1 0.2 0
2.2 0.2 0
2.3 0.2 0
2.4 0.2 0
2.5 0.2 0
2.6 0.2 0
2.7 0.2 0
2.8 0.2 0
2.9 0.2 0
3 0.2 0
3.1 0.2 0
3.2 0.2 0
3.3 0.2 0
3.4 0.2 0
3.5 0.2 0
3.6 0.2 0
3.7 0.2 0
3.8 0.2 0
3.9 0.2 0
4 0.2 0
4.1 0.2 0
4.2 0.2 0
4.3 0.2 0
4.4 0.2 0
4.5 0.2 0
4.6 0.2 0
4.7 0.2 0
4.8 0.2 0
4.9 0.2 0
5 0.2 0
5.1 0.2 0
5.2 0.2 0
5.3 0.2 0
5.4 0.2 0
5.5 0.2 0
5.6 0.2 0
5.7 0.2 0
5.8 0.2 0
5.9 0.2 0
6 0.2 0
0 0.3 0
0.1 0.3 0
0.2 0.3 0
0.3 0.3 0
0.4 0.3 0
0.5 0.3 0
0.6 0.3 0
0.7 0.3 0
0.8 0.3 0
0.9 0.3 0
1 0.3 0
1.1 0.3 0
1.2 0.3 0
1.3 0.3 0
1.4 0.3 0
1.5 0.3 0
1.6 0.3 0
1.7 0.3 0
1.8 0.3 0
1.9 0.3 0
2 0.3 0
2.1 0.3 0
2.2 0.3 0
2.3 0.3 0
2.4 0.3 0
2.5 0.3 0
2.6 0.3 0
2.7 0.3 0
2.8 0.3 0
2.9 0.3 0
3 0.3 0
3.1 0.3 0
3.2 0.3 0
3.3 0.3 0
3.4 0.3 0
3.5 0.3 0
3.6 0.3 0
3.7 0.3 0
3.8 0.3 0
3.9 0.3 0
4 0.3 0
4.1 0.3 0
4.2 0.3 0
4.3 0.3 0
4.4 0.3 0
4.5 0.3 0
4.6 0.3 0
4.7 0.3 0
4.8 0.3 0
4.9 0.3 0
5 0.3 0
5.1 0.3 0
5.2 0.3 0
5.3 0.3 0
5.4 0.3 0
5.5 0.3 0
5.6 0.3 0
5.7 0.3 0
5.8 0.3 0
5.9 0.3 0
6 0.3 0
0 0.4 0
0.1 0.4 0
0.2 0.4 0
0.3 0.4 0
0.4 0.4 0
0.5 0.4 0
0.6 0.4 0
0.7 0.4 0
0.8 0.4 0
0.9 0.4 0
1 0.4 0
1.1 0.4 0
1.2 0.4 0
1.3 0.4 0
1.4 0.4 0
1.5 0.4 0
1.6 0.4 0
1.7 0.4 0
1.8 0.4 0
1.9 0.4 0
2 0.4 0
2.1 0.4 0
2.2 0.4 0
2.3 0.4 0
2.4 0.4 0
2.5 0.4 0
2.6 0.4 0
2.7 0.4 0
2.8 0.4 0
2.9 0.4 0
3 0.4 0
3.1 0.4 0
3.2 0.4 0
3.3 0.4 0
3.4 0.4 0
3.5 0.4 0
3.6 0.4 0
3.7 0.4 0
3.8 0.4 0
3.9 0.4 0
4 0.4 0
4.1 0.4 0
4.2 0.4 0
4.3 0.4 0
4.4 0.4 0
4.5 0.4 0
4.6 0.4 0
4.7 0.4 0
4.8 0.4 0
4.9 0.4 0
5 0.4 0
5.1 0.4 0
5.2 0.4 0
5.3 0.4 0
5.4 0.4 0
5.5 0.4 0
5.6 0.4 0
5.7 0.4 0
5.8 0.4 0
5.9 0.4 0
6 0.4 0
0 0.5 0
0.1 0.5 0
0.2 0.5 0
0.3 0.5 0
0.4 0.5 0
0.5 0.5 0
0.6 0.5 0
0.7 0.5 0
0.8 0.5 0
0.9 0.5 0
1 0.5 0
1.1 0.5 0
1.2 0.5 0
1.3 0.5 0
1.4 0.5 0
1.5 0.5 0
1.6 0.5 0
1.7 0.5 0
1.8 0.5 0
1.9 0.5 0
2 0.5 0
2.1 0.5 0
2.2 0.5 0
2.3 0.5 0
2.4 0.5 0
2.5 0.5 0
2.6 0.5 0
2.7 0.5 0
2.8 0.5 0
2.9 0.5 0
3 0.5 0
3.1 0.5 0
3.2 0.5 0
3.3 0.5 0
3.4 0.5 0
3.5 0.5 0
3.6 0.5 0
3.7 0.5 0
3.8 0.5 0
3.9 0.5 0
4 0.5 0
4.1 0.5 0
4.2 0.5 0
4.3 0.5 0
4.4 0.5 0
4.5 0.5 0
4.6 0.5 0
4.7 0.5 0
4.8 0.5 0
4.9 0.5 0
5 0.5 0
5.1 0.5 0
5.2 0.5 0
5.3 0.5 0
5.4 0.5 0
5.5 0.5 0
5.6 0.5 0
5.7 0.5 0
5.8 0.5 0
5.9 0.5 0
6 0.5 0
0 0.6 0
0.1 0.6 0
0.2 0.6 0
0.3 0.6 0
0.4 0.6 0
0.5 0.6 0
0.6 0.6 0
0.7 0.6 0
0.8 0.6 0
0.9 0.6 0
1 0.6 0
1.1 0.6 0
1.2 0.6 0
1.3 0.6 0
1.4 0.6 0
1.5 0.6 0
1.6 0.6 0
1.7 0.6 0
1.8 0.6 0
1.9 0.6 0
2 0.6 0
2.1 0.6 0
2.2 0.6 0
2.3 0.6 0
2.4 0.6 0
2.5 0.6 0
2.6 0.6 0
2.7 0.6 0
2.8 0.6 0
2.9 0.6 0
3 0.6 0
3.1 0.6 0
3.2 0.6 0
3.3 0.6 0
3.4 0.6 0
3.5 0.6 0
3.6 0.6 0
3.7 0.6 0
3.8 0.6 0
3.9 0.6 0
4 0.6 0
4.1 0.6 0
4.2 0.6 0
4.3 0.6 0
4.4 0.6 0
4.5 0.6 0
4.6 0.6 0
4.7 0.6 0
4.8 0.6 0
4.9 0.6 0
5 0.6 0
5.1 0.6 0
5.2 0.6 0
5.3 0.6 0
5.4 0.6 0
5.5 0.6 0
5.6 0.6 0
5.7 0.6 0
5.8 0.6 0
5.9 0.6 0
6 0.6 0
0 0.7 0
0.1 0.7 0
0.2 0.7 0
0.3 0.7 0
0.4 0.7 0
0.5 0.7 0
0.6 0.7 0
0.7 0.7 0
0.8 0.7 0
0.9 0.7 0
1 0.7 0
1.1 0.7 0
1.2 0.7 0
1.3 0.7 0
1.4 0.7 0
1.5 0.7 0
1.6 0.7 0
1.7 0.7 0
1.8 0.7 0
1.9 0.7 0
2 0.7 0
2.1 0.7 0
2.2 0.7 0
2.3 0.7 0
2.4 0.7 0
2.5 0.7 0
2.6 0.7 0
2.7 0.7 0
2.8 0.7 0
2.9 0.7 0
3 0.7 0
3.1 0.7 0
3.2 0.7 0
3.3 0.7 0
3.4 0.7 0
3.5 0.7 0
3.6 0.7 0
3.7 0.7 0
3.8 0.7 0
3.9 0.7 0
4 0.7 0
4.1 0.7 0
4.2 0.7 0
4.3 0.7 0
4.4 0.7 0
4.5 0.7 0
4.6 0.7 0
4.7 0.7 0
4.8 0.7 0
4.9 0.7 0
5 0.7 0
5.1 0.7 0
5.2 0.7 0
5.3 0.7 0
5.4 0.7 0
5.5 0.7 0
5.6 0.7 0
5.7 0.7 0
5.8 0.7 0
5.9 0.7 0
6 0.7 0
0 0.8 0
0.1 0.8 0
0.2 0.8 0
0.3 0.8 0
0.4 0.8 0
0.5 0.8 0
0.6 0.8 0
0.7 0.8 0
0.8 0.8 0
0.9 0.8 0
1 0.8 0
1.1 0.8 0
1.2 0.8 0
1.3 0.8 0
1.4 0.8 0
1.5 0.8 0
1.6 0.8 0
1.7 0.8 0
1.8 0.8 0
1.9 0.8 0
2 0.8 0
2.1 0.8 0
2.2 0.8 0
2.3 0.8 0
2.4 0.8 0
2.5 0.8 0
2.6 0.8 0
2.7 0.8 0
2.8 0.8 0
2.9 0.8 0
3 0.8 0
3.1 0.8 0
3.2 0.8 0
3.3 0.8 0
3.4 0.8 0
3.5 0.8 0
3.6 0.8 0
3.7 0.8 0
3.8 0.8 0
3.9 0.8 0
4 0.8 0
4.1 0.8 0
4.2 0.8 0
4.3 0.8 0
4.4 0.8 0
4.5 0.8 0
4.6 0.8 0
4.7 0.8 0
4.8 0.8 0
4.9 0.8 0
5 0.8 0
5.1 0.8 0
5.2 0.8 0
5.3 0.8 0
5.4 0.8 0
5.5 0.8 0
5.6 0.8 0
5.7 0.8 0
5.8 0.8 0
5.9 0.8 0
6 0.8 0
0 0.9 0
0.1 0.9 0
0.2 0.9 0
0.3 0.9 0
0.4 0.9 0
0.5 0.9 0
0.6 0.9 0
0.7 0.9 0
0.8 0.9 0
0.9 0.9 0
1 0.9 0
1.1 0.9 0
1.2 0.9 0
1.3 0.9 0
1.4 0.9 0
1.5 0.9 0
1.6 0.9 0
1.7 0.9 0
1.8 0.9 0
1.9 0.9 0
2 0.9 0
2.1 0.9 0
2.2 0.9 0
2.3 0.9 0
2.4 0.9 0
2.5 0.9 0
2.6 0.9 0
2.7 0.9 0
2.8 0.9 0
2.9 0.9 0
3 0.9 0
3.1 0.9 0
3.2 0.9 0
3.3 0.9 0
3.4 0.9 0
3.5 0.9 0
3.6 0.9 0
3.7 0.9 0
3.8 0.9 0
3.9 0.9 0
4 0.9 0
4.1 0.9 0
4.2 0.9 0
4.3 0.9 0
4.4 0.9 0
4.5 0.9 0
4.6 0.9 0
4.7 0.9 0
4.8 0.9 0
4.9 0.9 0
5 0.9 0
5.1 0.9 0
5.2 0.9 0
5.3 0.9 0
5.4 0.9 0
5.5 0.9 0
5.6 0.9 0
5.7 0.9 0
5.8 0.9 0
5.9 0.9 0
6 0.9 0
0 1 0
0.1 1 0
0.2 1 0
0.3 1 0
0.4 1 0
0.5 1 0
0.6 1 0
0.7 1 0
0.8 1 0
0.9 1 0
1 1 0
1.1 1 0
1.2 1 0
1.3 1 0
1.4 1 0
1.5 1 0
1.6 1 0
1.7 1 0
1.8 1 0
1.9 1 0
2 1 0
2.1 1 0
2.2 1 0
2.3 1 0
2.4 1 0
2.5 1 0
2.6 1 0
2.7 1 0
2.8 1 0
2.9 1 0
3 1 0
3.1 1 0
3.2 1 0
3.3 1 0
3.4 1 0
3.5 1 0
3.6 1 0
3.7 1 0
3.8 1 0
3.9 1 0
4 1 0
4.1 1 0
4.2 1 0
4.3 1 0
4.4 1 0
4.5 1 0
4.6 1 0
4.7 1 0
4.8 1 0
4.9 1 0
5 1 0
5.1 1 0
5.2 1 0
5.3 1 0
5.4 1 0
5.5 1 0
5.6 1 0
5.7 1 0
5.8 1 0
5.9 1 0
6 1 0
0 1.1 0
0.1 1.1 0
0.2 1.1 0
0.3 1.1 0
0.4 1.1 0
0.5 1.1 0
0.6 1.1 0
0.7 1.1 0
0.8 1.1 0
0.9 1.1 0
1 1.1 0
1.1 1.1 0
1.2 1.1 0
1.3 1.1 0
1.4 1.1 0
1.5 1.1 0
1.6 1.1 0
1.7 1.1 0
1.8 1.1 0
1.9 1.1 0
2 1.1 0
2.1 1.1 0
2.2 1.1 0
2.3 1.1 0
2.4 1.1 0
2.5 1.1 0
2.6 1.1 0
2.7 1.1 0
2.8 1.1 0
2.9 1.1 0
3 1.1 0
3.1 1.1 0
3.2 1.1 0
3.3 1.1 0
3.4 1.1 0
3.5 1.1 0
3.6 1.1 0
3.7 1.1 0
3.8 1.1 0
3.9 1.1 0
4 1.1 0
4.1 1.1 0
4.2 1.1 0
4.3 1.1 0
4.4 1.1 0
4.5 1.1 0
4.6 1.1 0
4.7 1.1 0
4.8 1.1 0
4.9 1.1 0
5 1.1 0
5.1 1.1 0
5.2 1.1 0
5.3 1.1 0
5.4 1.1 0
5.5 1.1 0
5.6 1.1 0
5.7 1.1 0
5.8 1.1 0
5.9 1.1 0
6 1.1 0
0 1.2 0
0.1 1.2 0
0.2 1.2 0
0.3 1.2 0
0.4 1.2 0
0.5 1.2 0
0.6 1.2 0
0.7 1.2 0
0.8 1.2 0
0.9 1.2 0
1 1.2 0
1.1 1.2 0
1.2 1.2 0
1.3 1.2 0
1.4 1.2 0
1.5 1.2 0
1.6 1.2 0
1.7 1.2 0
1.8 1.2 0
1.9 1.2 0
2 1.2 0
2.1 1.2 0
2.2 1.2 0
2.3 1.2 0
2.4 1.2 0
2.5 1.2 0
2.6 1.2 0
2.7 1.2 0
2.8 1.2 0
2.9 1.2 0
3 1.2 0
3.1 1.2 0
3.2 1.2 0
3.3 1.2 0
3.4 1.2 0
3.5 1.2 0
3.6 1.2 0
3.7 1.2 0
3.8 1.2 0
3.9 1.2 0
4 1.2 0
4.1 1.2 0
4.2 1.2 0
4.3 1.2 0
4.4 1.2 0
4.5 1.2 0
4.6 1.2 0
4.7 1.2 0
4.8 1.2 0
4.9 1.2 0
5 1.2 0
5.1 1.2 0
5.2 1.2 0
5.3 1.2 0
5.4 1.2 0
5.5 1.2 0
5.6 1.2 0
5.7 1.2 0
5.8 1.2 0
5.9 1.2 0
6 1.2 0
0 1.3 0
0.1 1.3 0
0.2 1.3 0
0.3 1.3 0
0.4 1.3 0
0.5 1.3 0
0.6 1.3 0
0.7 1.3 0
0.8 1.3 0
0.9 1.3 0
1 1.3 0
1.1 1.3 0
1.2 1.3 0
1.3 1.3 0
1.4 1.3 0
1.5 1.3 0
1.6 1.3 0
1.7 1.3 0
1.8 1.3 0
1.9 1.3 0
2 1.3 0
2.1 1.3 0
2.2 1.3 0
2.3 1.3 0
2.4 1.3 0
2.5 1.3 0
2.6 1.3 0
2.7 1.3 0
2.8 1.3 0
2.9 1.3 0
3 1.3 0
3.1 1.3 0
3.2 1.3 0
3.3 1.3 0
3.4 1.3 0
3.5 1.3 0
3.6 1.3 0
3.7 1.3 0
3.8 1.3 0
3.9 1.3 0
4 1.3 0
4.1 1.3 0
4.2 1.3 0
4.3 1.3 0
4.4 1.3 0
4.5 1.3 0
4.6 1.3 0
4.7 1.3 0
4.8 1.3 0
4.9 1.3 0
5 1.3 0
5.1 1.3 0
5.2 1.3 0
5.3 1.3 0
5.4 1.3 0
5.5 1.3 0
5.6 1.3 0
5.7 1.3 0
5.8 1.3 0
5.9 1.3 0
6 1.3 0
0 1.4 0
0.1 1.4 0
0.2 1.4 0
0.3 1.4 0
0.4 1.4 0
0.5 1.4 0
0.6 1.4 0
0.7 1.4 0
0.8 1.4 0
0.9 1.4 0
1 1.4 0
1.1 1.4 0
1.2 1.4 0
1.3 1.4 0
1.4 1.4 0
1.5 1.4 0
1.6 1.4 0
1.7 1.4 0
1.8 1.4 0
1.9 1.4 0
2 1.4 0
2.1 1.4 0
2.2 1.4 0
2.3 1.4 0
2.4 1.4 0
2.5 1.4 0
2.6 1.4 0
2.7 1.4 0
2.8 1.4 0
2.9 1.4 0
3 1.4 0
3.1 1.4 0
3.2 1.4 0
3.3 1.4 0
3.4 1.4 0
3.5 1.4 0
3.6 1.4 0
3.7 1.4 0
3.8 1.4 0
3.9 1.4 0
4 1.4 0
4.1 1.4 0
4.2 1.4 0
4.3 1.4 0
4.4 1.4 0
4.5 1.4 0
4.6 1.4 0
4.7 1.4 0
4.8 1.4 0
4.9 1.4 0
5 1.4 0
5.1 1.4 0
5.2 1.4 0
5.3 1.4 0
5.4 1.4 0
5.5 1.4 0
5.6 1.4 0
5.7 1.4 0
5.8 1.4 0
5.9 1.4 0
6 1.4 0
0 1.5 0
0.1 1.5 0
0.2 1.5 0
0.3 1.5 0
0.4 1.5 0
0.5 1.5 0
0.6 1.5 0
0.7 1.5 0
0.8 1.5 0
0.9 1.5 0
1 1.5 0
1.1 1.5 0
1.2 1.5 0
1.3 1.5 0
1.4 1.5 0
1.5 1.5 0
1.6 1.5 0
1.7 1.5 0
1.8 1.5 0
1.9 1.5 0
2 1.5 0
2.1 1.5 0
2.2 1.5 0
2.3 1.5 0
2.4 1.5 0
2.5 1.5 0
2.6 1.5 0
2.7 1.5 0
2.8 1.5 0
2.9 1.5 0
3 1.5 0
3.1 1.5 0
3.2 1.5 0
3.3 1.5 0
3.4 1.5 0
3.5 1.5 0
3.6 1.5 0
3.7 1.5 0
3.8 1.5 0
3.9 1.5 0
4 1.5 0
4.1 1.5 0
4.2 1.5 0
4.3 1.5 0
4.4 1.5 0
4.5 1.5 0
4.6 1.5 0
4.7 1.5 0
4.8 1.5 0
4.9 1.5 0
5 1.5 0
5.1 1.5 0
5.2 1.5 0
5.3 1.5 0
5.4 1.5 0
5.5 1.5 0
5.6 1.5 0
5.7 1.5 0
5.8 1.5 0
5.9 1.5 0
6 1.5 0
0 1.6 0
0.1 1.6 0
0.2 1.6 0
0.3 1.6 0
0.4 1.6 0
0.5 1.6 0
0.6 1.6 0
0.7 1.6 0
0.8 1.6 0
0.9 1.6 0
1 1.6 0
1.1 1.6 0
1.2 1.6 0
1.3 1.6 0
1.4 1.6 0
1.5 1.6 0
1.6 1.6 0
1.7 1.6 0
1.8 1.6 0
1.9 1.6 0
2 1.6 0
2.1 1.6 0
2.2 1.6 0
2.3 1.6 0
2.4 1.6 0
2.5 1.6 0
2.6 1.6 0
2.7 1.6 0
2.8 1.6 0
2.9 1.6 0
3 1.6 0
3.1 1.6 0
3.2 1.6 0
3.3 1.6 0
3.4 1.6 0
3.5 1.6 0
3.6 1.6 0
3.7 1.6 0
3.8 1.6 0
3.9 1.6 0
4 1.6 0
4.1 1.6 0
4.2 1.6 0
4.3 1.6 0
4.4 1.6 0
4.5 1.6 0
4.6 1.6 0
4.7 1.6 0
4.8 1.6 0
4.9 1.6 0
5 1.6 0
5.1 1.6 0
5.2 1.6 0
5.3 1.6 0
5.4 1.6 0
5.5 1.6 0
5.6 1.6 0
5.7 1.6 0
5.8 1.6 0
5.9 1.6 0
6 1.6 0
[...]
CELL_DATA 2400
SCALARS phi float
LOOKUP_TABLE default 
4.711
4.711
4.711
4.711
4.711
4.711
4.711
4.711
4.711
4.711
4.711
4.711
4.711
4.711
4.711
4.711
4.711
4.711
4.711
4.711
4.711
4.711
4.711
4.711
4.711
4.711
4.711
4.711
4.711
4.711
4.711
4.711
4.711
4.711
4.711
4.711
4.711
4.711
4.711
4.711
4.711
4.711
4.711
4.711
4.711
4.711
4.711
4.711
4.711
4.711
4.711
4.711
4.711
4.711
4.711
4.711
4.711
4.711
4.711
4.711
4.711
4.711
4.711
4.711
4.711
4.711
4.711
4.711
4.711
4.711
4.711
4.711
4.711
4.711
4.711
4.711
4.711
4.711
4.711
4.711
4.711
4.711
4.711
4.711
4.711
4.711
4.711
4.711
4.711
4.711
4.711
4.711
4.711
4.711
4.711
4.711
4.711
4.711
4.711
4.711
4.711
4.711
4.711
4.711
4.711
4.711
4.711
4.711
4.711
4.711
4.711
4.711
4.711
4.711
4.711
4.711
4.711
4.711
4.711
4.711
4.711
4.711
4.711
4.711
4.711
4.711
4.711
4.711
4.711
4.711
4.711
4.711
4.711
4.711
4.711
4.711
4.711
4.711
4.711
4.711
4.711
4.711
4.711
4.711
4.711
4.711
4.711
4.711
4.711
4.711
4.711
4.711
4.711
4.711
4.711
4.711
4.711
4.711
4.711
4.711
4.711
4.711
4.711
4.711
4.711
4.711
4.711
4.711
4.711
4.711
4.711
4.711
4.711
4.711
4.711
4.711
4.711
4.711
4.711
4.711
4.711
4.711
4.711
4.711
4.711
4.711
4.711
4.711
4.711
4.711
4.711
4.711
4.711
4.711
4.711
4.711
4.711
4.711
4.711
4.711
4.711
4.711
4.711
4.711
4.711
4.711
4.711
4.711
4.711
4.711
4.711
4.711
4.711
4.711
4.711
4.711
4.711
4.711
4.711
4.711
4.711
4.711
4.711
4.711
4.711
4.711
4.711
4.711
4.711
4.711
4.711
4.711
4.711
4.711
4.711
4.711
4.711
4.711
4.711
4.711
4.711
4.711
4.711
4.711
4.711
4.711
4.711
4.711
4.711
4.711
4.711
4.711
4.711
4.711
4.711
4.711
4.711
4.711
4.711
4.711
4.711
4.711
4.711
4.711
4.711
4.711
4.711
4.711
4.711
4.711
4.711
4.711
4.711
4.711
4.711
4.711
4.711
4.711
4.711
4.711
4.711
4.711
4.711
4.711
4.711
4.711
4.711
4.711
4.711
4.711
4.711
4.711
4.711
4.711
4.711
4.711
4.711
4.711
4.711
4.711
4.711
4.711
4.711
4.711
4.711
4.711
4.711
4.711
4.711
4.711
4.711
4.711
4.711
4.711
4.711
4.711
4.711
4.711
4.711
4.711
4.711
4.711
4.711
4.711
4.711
4.711
4.711
4.711
4.711
4.711
4.711
4.711
4.711
4.711
4.711
4.711
4.711
4.711
4.711
4.711
4.711
4.711
4.711
4.711
4.711
4.711
4.711
4.711
4.711
4.711
4.711
4.711
4.711
4.711
4.711
4.711
4.711
4.711
4.711
4.711
4.711
4.711
4.711
4.711
4.711
4.711
4.711
4.711
4.711
4.711
4.711
4.711
4.711
4.711
4.711
4.711
4.711
4.711
4.711
4.711
4.711
4.711
4.711
4.711
4.711
4.711
4.711
4.711
4.711
4.711
4.711
4.711
4.711
4.711
4.711
4.711
4.711
4.711
4.711
4.711
4.711
4.711
4.711
4.711
4.711
4.711
4.711
4.711
4.711
4.711
4.711
4.711
4.711
4.711
4.711
4.711
4.711
4.711
4.711
4.711
4.711
4.711
4.711
4.711
4.711
4.711
4.711
4.711
4.711
4.711
4.711
4.711
4.711
4.711
4.711
4.711
4.711
4.711
4.711
4.711
4.711
4.711
4.711
4.711
4.711
4.711
4.711
4.711
4.711
4.711
4.711
4.711
4.711
4.711
4.711
4.711
4.711
4.711
4.711
4.711
4.711
4.711
4.711
4.711
4.711
4.711
4.711
4.711
4.711
4.711
4.711
4.711
4.711
4.711
4.711
4.711
4.711
4.711
4.711
4.711
4.711
4.711
4.711
4.711
4.711
4.711
4.711
4.711
4.711
4.711
4.711
4.711
4.711
4.711
4.711
4.711
4.711
4.711
4.711
4.711
4.711
4.711
4.711
4.711
4.711
4.711
4.711
4.711
4.711
4.711
4.711
4.711
4.711
4.711
4.711
4.711
4.711
4.711
4.711
4.711
4.711
4.711
4.711
4.711
4.711
4.711
4.711
4.711
4.711
4.711
4.711
4.711
4.711
4.711
4.711
4.711
4.711
4.711
4.711
4.711
4.711
4.711
4.711
4.711
4.711
4.711
4.711
4.711
4.711
4.711
4.711
4.711
4.711
4.711
4.711
4.711
4.711
4.711
4.711
4.711
4.711
4.711
4.711
4.711
4.711
4.711
4.711
4.711
4.711
4.711
4.711
4.711
4.711
4.711
4.711
4.711
4.711
4.711
4.711
4.711
4.711
4.711
4.711
4.711
4.711
4.711
4.711
4.711
4.711
4.711
4.711
4.711
4.711
4.711
4.711
4.711
4.711
4.711
4.711
4.711
4.711
4.711
4.711
4.711
4.711
4.711
4.711
4.711
4.711
4.711
4.711
4.711
4.711
4.711
4.711
4.711
4.711
4.711
4.711
4.711
4.711
4.711
4.711
4.711
4.711
4.711
4.711
4.711
4.711
4.711
4.711
4.711
4.711
4.711
4.711
4.711
4.711
4.711
4.711
4.711
4.711
4.711
4.711
4.711
4.711
4.711
4.711
4.711
4.711
4.711
4.711
4.711
4.711
4.711
4.711
4.711
4.711
4.711
4.711
4.711
4.711
4.711
4.711
4.711
4.711
4.711
4.711
4.711
4.711
4.711
4.711
4.711
4.711
4.711
4.711
4.711
4.711
4.711
4.711
4.711
4.711
4.711
4.711
4.711
4.711
4.711
4.711
4.711
4.711
4.711
4.711
4.711
4.711
4.711
4.711
4.711
4.711
4.711
4.711
4.711
4.711
4.711
4.711
4.711
4.711
4.711
4.711
4.711
4.711
4.711
4.711
4.711
4.711
4.711
4.711
4.711
4.711
4.711
4.711
4.711
4.711
4.711
4.711
4.711
4.711
4.711
4.711
4.711
4.711
4.711
4.711
4.711
4.711
4.711
4.711
4.711
4.711
4.711
4.711
4.711
4.711
4.711
4.711
4.711
4.711
4.711
4.711
4.711
4.711
4.711
4.711
4.711
4.711
4.711
4.711
4.711
4.711
4.711
4.711
4.711
4.711
4.711
4.711
4.711
4.711
4.711
4.711
4.711
4.711
4.711
4.711
4.711
4.711
4.711
4.711
4.711
4.711
4.711
4.711
4.711
4.711
4.711
4.711
4.711
4.711
4.711
4.711
4.711
4.711
4.711
4.711
4.711
4.711
4.711
4.711
4.711
4.711
4.711
4.711
4.711
4.711
4.711
4.711
4.711
4.711
4.711
4.711
4.711
4.711
4.711
4.711
4.711
4.711
4.711
4.711
4.711
4.711
4.711
4.711
4.711
4.711
4.711
4.711
4.711
4.711
4.711
4.711
4.711
4.711
4.711
4.711
4.711
4.711
4.711
4.711
4.711
4.711
4.711
4.711
4.711
4.711
4.711
4.711
4.711
4.711
4.711
4.711
4.711
4.711
4.711
4.711
4.711
4.711
4.711
4.711
4.711
4.711
4.711
4.711
4.711
4.711
4.711
4.711
4.711
4.711
4.711
4.711
4.711
4.711
4.711
4.711
4.711
4.711
4.711
4.711
4.711
4.711
4.711
4.711
4.711
4.711
4.711
4.711
4.711
4.711
4.711
4.711
4.711
4.711
4.711
4.711
4.711
4.711
4.711
4.711
4.711
4.711
4.711
4.711
4.711
4.711
4.711
4.711
4.711
4.711
4.711
4.711
4.711
4.711
4.711
4.711
4.711
4.711
4.711
4.711
4.711
4.711
4.711
4.711
4.711
4.711
4.711
4.711
4.711
4.711
4.711
4.711
4.711
4.711
4.711
4.711
4.711
4.711
4.711
4.711
4.711
4.711
4.711
4.711
4.711
4.711
4.711
4.711
4.711
4.711
4.711
4.711
4.711
4.711
4.711
4.711
4.711
4.711
4.711
4.711
4.711
4.711
4.711
4.711
4.711
4.711
4.711
4.711
4.711
4.711
4.711
4.711
4.711
4.711
4.711
4.711
4.711
4.711
4.711
4.711
4.711
4.711
4.711
4.711
4.711
4.711
4.711
4.711
4.711
4.711
4.711
4.711
4.711
4.711
4.711
4.711
4.711
4.711
4.711
4.711
4.711
4.711
4.711
4.711
4.711
4.711
4.711
4.711
4.711
4.711
4.711
4.711
4.711
4.711
4.711
4.711
4.711
4.711
4.711
4.711
4.711
4.711
4.711
4.711
4.711
4.711
4.711
4.711
4.711
4.711
4.711
4.711
4.711
4.711
4.711
4.711
4.711
4.711
4.711
4.711
4.711
4.711
4.711
4.711
4.711
4.711
4.711
4.711
4.711
4.711
4.711
4.711
4.711
4.711
4.711
4.711
4.711
4.711
4.711
4.711
4.711
4.711
4.711
4.711
4.711
4.711
4.711
4.711
4.711
4.711
4.711
4.711
4.711
4.711
4.711
4.711
4.711
4.711
4.711
4.711
4.711
4.711
4.711
4.711
4.711
4.711
4.711
4.711
4.711
4.711
4.711
4.711
4.711
4.711
4.711
4.711
4.711
4.711
4.711
4.711
4.711
4.711
4.711
4.711
4.711
4.711
4.711
4.711
4.711
4.711
4.711
4.711
4.711
4.711
4.711
4.711
4.711
4.711
4.711
4.711
4.711
4.711
4.711
4.711
4.711
4.711
4.711
4.711
4.711
4.711
4.711
4.711
4.711
4.711
4.711
4.711
4.711
4.711
4.711
4.711
4.711
4.711
4.711
4.711
4.711
4.711
4.711
4.711
4.711
4.711
4.711
4.711
4.711
4.711
4.711
4.711
4.711
4.711
4.711
4.711
4.711
4.711
4.711
4.711
4.711
4.711
4.711
4.711
4.711
4.711
4.711
4.711
4.711
4.711
4.711
4.711
4.711
4.711
4.711
4.711
4.711
4.711
4.711
4.711
4.711
4.711
4.711
4.711
4.711
4.711
4.711
4.711
4.711
4.711
4.711
4.711
4.711
4.711
4.711
4.711
4.711
4.711
4.711
4.711
4.711
4.711
4.711
4.711
4.711
4.711
4.711
4.711
4.711
4.711
4.711
4.711
4.711
4.711
4.711
4.711
4.711
4.711
4.711
4.711
4.711
4.711
4.711
4.711
4.711
4.711
4.711
4.711
4.711
4.711
4.711
4.711
4.711
4.711
4.711
4.711
4.711
4.711
4.711
4.711
4.711
4.711
4.711
4.711
4.711
4.711
4.711
4.711
4.711
4.711
4.711
4.711
4.711
4.711
4.711
4.711
4.711
4.711
4.711
4.711
4.711
4.711
4.711
4.711
4.711
4.711
4.711
4.711
4.711
4.711
4.711
4.711
4.711
4.711
4.711
4.711
4.711
4.711
4.711
4.711
4.711
4.711
4.711
4.711
4.711
4.711
4.711
4.711
4.711
4.711
4.711
4.711
4.711
4.711
4.711
4.711
4.711
4.711
4.711
4.711
4.711
4.711
4.711
4.711
4.711
4.711
4.711
4.711
4.711
4.711
4.711
4.711
4.711
4.711
4.711
4.711
4.711
4.711
4.711
4.711
4.711
4.711
4.711
4.711
4.711
4.711
4.711
4.711
4.711
4.711
4.711
4.711
4.711
4.711
4.711
4.711
4.711
4.711
4.711
4.711
4.711
4.711
4.711
4.711
4.711
4.711
4.711
4.711
4.711
4.711
4.711
4.711
4.711
4.711
4.711
4.711
4.711
4.711
4.711
4.711
4.711
4.711
4.711
4.711
4.711
4.711
4.711
4.711
4.711
4.711
4.711
4.711
4.711
4.711
4.711
4.711
4.711
4.711
4.711
4.711
4.711
4.711
4.711
4.711
4.711
4.711
4.711
4.711
4.711
4.711
4.711
4.711
4.711
4.711
4.711
4.711
4.711
4.711
4.711
4.711
4.711
4.711
4.711
4.711
4.711
4.711
4.711
4.711
4.711
4.711
4.711
4.711
4.711
4.711
4.711
4.711
4.711
4.711
4.711
4.711
4.711
4.711
4.711
4.711
4.711
4.711
4.711
4.711
4.711
4.711
4.711
4.711
4.711
4.711
4.711
4.711
4.711
4.711
4.711
4.711
4.711
4.711
4.711
4.711
4.711
4.711
4.711
4.711
4.711
4.711
4.711
4.711
4.711
4.711
4.711
4.711
4.711
4.711
4.711
4.711
4.711
4.711
4.711
4.711
4.711
4.711
4.711
4.711
4.711
4.711
4.711
4.711
4.711
4.711
4.711
4.711
4.711
4.711
4.711
4.711
4.711
4.711
4.711
4.711
4.711
4.711
4.711
4.711
4.711
4.711
4.711
4.711
4.711
4.711
4.711
4.711
4.711
4.711
4.711
4.711
4.711
4.711
4.711
4.711
4.711
4.711
4.711
4.711
4.711
4.711
4.711
4.711
4.711
4.711
4.711
4.711
4.711
4.711
4.711
4.711
4.711
4.711
4.711
4.711
4.711
4.711
4.711
4.711
4.711
4.711
4.711
4.711
4.711
4.711
4.711
4.711
4.711
4.711
4.711
4.711
4.711
4.711
4.711
4.711
4.711
4.711
4.711
4.711
4.711
4.711
4.711
4.711
4.711
4.711
4.711
4.711
4.711
4.711
4.711
4.711
4.711
4.711
4.711
4.711
4.711
4.711
4.711
4.711
4.711
4.711
4.711
4.711
4.711
4.711
4.711
4.711
4.711
4.711
4.711
4.711
4.711
4.711
4.711
4.711
4.711
4.711
4.711
4.711
4.711
4.711
4.711
4.711
4.711
4.711
4.711
4.711
4.711
4.711
4.711
4.711
4.711
4.711
4.711
4.711
4.711
4.711
4.711
4.711
4.711
4.711
4.711
4.711
4.711
4.711
4.711
4.711
4.711
4.711
4.711
4.711
4.711
4.711
4.711
4.711
4.711
4.711
4.711
4.711
4.711
4.711
4.711
4.711
4.711
4.711
4.711
4.711
4.711
4.711
4.711
4.711
4.711
4.711
4.711
4.711
4.711
4.711
4.711
4.711
4.711
4.711
4.711
4.711
4.711
4.711
4.711
4.711
4.711
4.711
4.711
4.711
4.711
4.711
4.711
4.711
4.711
4.711
4.711
4.711
4.711
4.711
4.711
4.711
4.711
4.711
4.711
4.711
4.711
4.711
4.711
4.711
4.711
4.711
4.711
4.711
4.711
4.711
4.711
4.711
4.711
4.711
4.711
4.711
4.711
4.711
4.711
4.711
4.711
4.711
4.711
4.711
4.711
4.711
4.711
4.711
4.711
4.711
4.711
4.711
4.711
4.711
4.711
4.711
4.711
4.711
4.711
4.711
4.711
4.711
4.711
4.711
4.711
4.711
4.711
4.711
4.711
4.711
4.711
4.711
4.711
4.711
4.711
4.711
4.711
4.711
4.711
4.711
4.711
4.711
4.711
4.711
4.711
4.711
4.711
4.711
4.711
4.711
4.711
4.711
4.711
4.711
4.711
4.711
4.711
4.711
4.711
4.711
4.711
4.711
4.711
4.711
4.711
4.711
4.711
4.711
4.711
4.711
4.711
4.711
4.711
4.711
4.711
4.711
4.711
4.711
4.711
4.711
4.711
4.711
4.711
4.711
4.711
4.711
4.711
4.711
4.711
4.711
4.711
4.711
4.711
4.711
4.711
4.711
4.711
4.711
4.711
4.711
4.711
4.711
4.711
4.711
4.711
4.711
4.711
4.711
4.711
4.711
4.711
4.711
4.711
4.711
4.711
4.711
4.711
4.711
4.711
4.711
4.711
4.711
4.711
4.711
4.711
4.711
4.711
4.711
4.711
4.711
4.711
4.711
4.711
4.711
4.711
4.711
4.711
4.711
4.711
4.711
4.711
4.711
4.711
4.711
4.711
4.711
4.711
4.711
4.711
4.711
4.711
4.711
4.711
4.711
4.711
4.711
4.711
4.711
4.711
4.711
4.711
4.711
4.711
4.711
4.711
4.711
4.711
4.711
4.711
4.711
4.711
4.711
4.711
4.711
4.711
4.711
4.711
4.711
4.711
4.711
4.711
4.711
4.711
4.711
4.711
4.711
4.711
4.711
4.711
4.711
4.711
4.711
4.711
4.711
4.711
4.711
4.711
4.711
4.711
4.711
4.711
4.711
4.711
4.711
4.711
4.711
4.711
4.711
4.711
4.711
4.711
4.711
4.711
4.711
4.711
4.711
4.711
4.711
4.711
4.711
4.711
4.711
4.711
4.711
4.711
4.711
4.711
4.711
4.711
4.711
4.711
4.711
4.711
4.711
4.711
4.711
4.711
4.711
4.711
4.711
4.711
4.711
4.711
4.711
4.711
4.711
4.711
4.711
4.711
4.711
4.711
4.711
4.711
4.711
4.711
4.711
4.711
4.711
4.711
4.711
4.711
4.711
4.711
4.711
4.711
4.711
4.711
4.711
4.711
4.711
4.711
4.711
4.711
4.711
4.711
4.711
4.711
4.711
4.711
4.711
4.711
4.711
4.711
4.711
4.711
4.711
4.711
4.711
4.711
4.711
4.711
4.711
4.711
4.711
4.711
4.711
4.711
4.711
4.711
4.711
4.711
4.711
4.711
4.711
4.711
4.711
4.711
4.711
4.711
4.711
4.711
4.711
4.711
4.711
4.711
4.711
4.711
4.711
4.711
4.711
4.711
4.711
4.711
4.711
4.711
4.711
4.711
4.711
4.711
4.711
4.711
4.711
4.711
4.711
4.711
4.711
4.711
4.711
4.711
4.711
4.711
4.711
4.711
4.711
4.711
4.711
4.711
4.711
4.711
4.711
4.711
4.711
4.711
4.711
4.711
4.711
4.711
4.711
4.711
4.711
4.711
4.711
4.711
4.711
4.711
4.711
4.711
4.711
4.711
4.711
4.711
4.711
4.711
4.711
4.711
4.711
4.711
4.711
4.711
4.711
4.711
4.711
4.711
4.711
4.711
4.711
4.711
4.711
4.711
4.711
4.711
4.711
4.711
4.711
4.711
4.711
4.711
4.711
4.711
4.711
4.711
4.711
4.711
4.711
4.711
4.711
4.711
4.711
4.711
4.711
4.711
4.711
4.711
4.711
4.711
4.711
4.711
4.711
4.711
4.711
4.711
4.711
4.711
4.711
4.711
4.711
4.711
4.711
4.711
4.711
4.711
4.711
4.711
4.711
4.711
4.711
4.711
4.711
4.711
4.711
4.711
4.711
4.711
4.711
4.711
4.711
4.711
4.711
4.711
4.711
4.711
4.711
4.711
4.711
4.711
4.711
4.711
4.711
4.711
4.711
4.711
4.711
4.711
4.711
4.711
4.711
4.711
4.711
4.711
4.711
4.711
4.711
4.711
4.711
4.711
4.711
4.711
4.711
4.711
4.711
4.711
4.711
4.711
4.711
4.711
4.711
4.711
4.711
4.711
4.711
4.711
4.711
4.711
4.711
4.711
4.711
4.711
4.711
4.711
4.711
4.711
4.711
4.711
4.711
4.711
4.711
4.711
4.711
4.711
4.711
4.711
4.711
4.711
4.711
4.711
4.711
4.711
4.711
4.711
4.711
4.711
4.711
4.711
4.711
4.711
4.711
4.711
4.711
4.711
4.711
4.711
4.711
4.711
4.711
4.711
4.711
4.711
4.711
4.711
4.711
4.711
4.711
4.711
4.711
4.711
4.711
4.711
4.711
4.711
4.711
4.711
4.711
4.711
4.711
4.711
4.711
4.711
4.711
4.711
4.711
4.711
4.711
4.711
4.711
4.711
4.711
4.711
4.711
4.711
4.711
4.711
4.711
4.711
4.711
4.711
4.711
4.711
4.711
4.711
4.711
4.711
4.711
4.711
4.711
4.711
4.711
4.711
4.711
4.711
4.711
4.711
4.711
4.711
4.711
4.711
4.711
4.711
4.711
4.711
4.711
4.711
4.711
4.711
4.711
4.711
4.711
4.711
4.711
4.711
4.711
4.711
4.711
4.711
4.711
4.711
4.711
4.711
4.711
4.711
4.711
4.711
4.711
4.711
4.711
4.711
4.711
4.711
4.711
4.711
4.711
4.711
4.711
4.711
4.711
4.711
4.711
4.711
4.711
4.711
4.711
4.711
4.711
4.711
4.711
4.711
4.711
4.711
4.711
4.711
4.711
4.711
4.711
4.711
4.711
4.711
4.711
4.711
4.711
4.711
4.711
4.711
4.711
4.711
4.711
4.711
4.711
4.711
4.711
4.711
4.711
4.711
4.711
4.711
4.711
4.711
4.711
4.711
4.711
4.711
4.711
4.711
4.711
4.711
4.711
4.711
4.711
4.711
4.711
4.711
4.711
4.711
4.711
4.711
4.711
4.711
4.711
4.711
4.711
4.711
4.711
4.711
4.711
4.711
4.711
4.711

SCALARS p float
LOOKUP_TABLE default 
0
0
0
0
0
0
0
0
0
0
-1585.34
-1585.34
-1586.36
-1587.39
-1588.22
-1588.73
-1588.88
-1588.69
-1588.19
-1587.44
-1586.5
-1585.41
-1584.22
-1582.96
-1581.65
-1580.26
-1578.77
-1577.12
-1575.21
-1572.9
-1570.03
-1566.36
-1561.63
-1555.48
-1547.52
-1537.3
-1524.3
-1507.94
-1487.61
-1462.65
-1432.38
-1396.13
-1353.24
-1303.1
-1245.18
-1179.09
-1104.55
-1021.5
-930.094
-830.752
-724.222
-611.627
-494.565
-375.239
-256.698
-143.233
-41.0941
40.1975
85.3142
10
0
0
0
0
0
0
0
0
0
0
-1585.34
-1585.34
-1586.36
-1587.39
-1588.22
-1588.73
-1588.88
-1588.69
-1588.19
-1587.44
-1586.5
-1585.41
-1584.22
-1582.96
-1581.65
-1580.26
-1578.77
-1577.12
-1575.21
-1572.9
-1570.03
-1566.36
-1561.63
-1555.48
-1547.52
-1537.3
-1524.3
-1507.94
-1487.61
-1462.65
-1432.38
-1396.13
-1353.24
-1303.1
-1245.18
-1179.09
-1104.55
-1021.5
-930.094
-830.752
-724.222
-611.627
-494.565
-375.239
-256.698
-143.233
-41.0941
40.1975
85.3142
10
0
0
0
0
0
0
0
0
0
0
-1584.32
-1584.32
-1585.27
-1586.09
-1586.64
-1586.86
-1586.74
-1586.28
-1585.53
-1584.53
-1583.32
-1581.95
-1580.46
-1578.87
-1577.2
-1575.43
-1573.55
-1571.49
-1569.17
-1566.49
-1563.27
-1559.31
-1554.37
-1548.11
-1540.19
-1530.16
-1517.53
-1501.77
-1482.27
-1458.4
-1429.48
-1394.86
-1353.87
-1305.91
-1250.44
-1187.03
-1115.4
-1035.46
-947.365
-851.531
-748.712
-640.052
-527.153
-412.179
-297.989
-188.353
-88.2969
-4.67392
53.2479
10
0
0
0
0
0
0
0
0
0
0
-1583.28
-1583.28
-1584.35
-1585.08
-1585.44
-1585.42
-1585.03
-1584.29
-1583.26
-1581.96
-1580.46
-1578.78
-1576.96
-1575.03
-1573.01
-1570.9
-1568.69
-1566.33
-1563.76
-1560.89
-1557.58
-1553.66
-1548.89
-1543
-1535.65
-1526.43
-1514.88
-1500.45
-1482.58
-1460.61
-1433.87
-1401.68
-1363.36
-1318.26
-1265.79
-1205.51
-1137.09
-1060.41
-975.607
-883.085
-783.601
-678.295
-568.736
-456.957
-345.483
-237.353
-136.19
-46.4938
25.3857
10
0
0
0
0
0
0
0
0
0
0
-1582.55
-1582.55
-1583.81
-1584.54
-1584.76
-1584.52
-1583.87
-1582.85
-1581.52
-1579.91
-1578.08
-1576.07
-1573.92
-1571.65
-1569.31
-1566.9
-1564.43
-1561.88
-1559.22
-1556.37
-1553.24
-1549.67
-1545.49
-1540.42
-1534.16
-1526.32
-1516.45
-1504.01
-1488.41
-1469
-1445.06
-1415.87
-1380.7
-1338.86
-1289.72
-1232.77
-1167.65
-1094.21
-1012.57
-923.131
-826.639
-724.212
-617.344
-507.887
-397.987
-289.975
-186.27
-89.5669
-4.28232
10
0
0
0
0
0
0
0
0
0
0
-1582.46
-1582.46
-1583.93
-1584.68
-1584.79
-1584.35
-1583.45
-1582.14
-1580.5
-1578.56
-1576.39
-1574.03
-1571.53
-1568.93
-1566.28
-1563.61
-1560.95
-1558.32
-1555.7
-1553.07
-1550.35
-1547.43
-1544.15
-1540.28
-1535.51
-1529.49
-1521.73
-1511.71
-1498.79
-1482.29
-1461.45
-1435.49
-1403.64
-1365.14
-1319.32
-1265.61
-1203.64
-1133.23
-1054.48
-967.78
-873.85
-773.754
-668.871
-560.839
-451.431
-342.39
-235.241
-131.388
-33.596
10
0
0
0
0
0
0
0
0
0
0
-1583.32
-1583.32
-1584.99
-1585.75
-1585.74
-1585.1
-1583.94
-1582.34
-1580.36
-1578.08
-1575.54
-1572.8
-1569.93
-1566.98
-1564.02
-1561.11
-1558.31
-1555.66
-1553.18
-1550.89
-1548.74
-1546.66
-1544.49
-1542.04
-1539
-1534.99
-1529.54
-1522.08
-1511.94
-1498.39
-1480.62
-1457.8
-1429.1
-1393.72
-1350.93
-1300.16
-1240.99
-1173.24
-1096.97
-1012.56
-920.68
-822.315
-718.699
-611.241
-501.386
-390.425
-279.291
-168.563
-59.6822
10
0
0
0
0
0
0
0
0
0
0
-1585.47
-1585.47
-1587.29
-1588.01
-1587.85
-1586.97
-1585.52
-1583.58
-1581.24
-1578.56
-1575.6
-1572.43
-1569.14
-1565.79
-1562.49
-1559.32
-1556.36
-1553.7
-1551.41
-1549.5
-1547.98
-1546.79
-1545.8
-1544.8
-1543.5
-1541.5
-1538.28
-1533.26
-1525.72
-1514.86
-1499.86
-1479.81
-1453.85
-1421.15
-1380.94
-1332.64
-1275.81
-1210.24
-1135.99
-1053.39
-963.051
-865.86
-762.898
-655.363
-544.43
-431.073
-315.874
-198.967
-80.9149
10
0
0
0
0
0
0
0
0
0
0
-1589.25
-1589.25
-1591.11
-1591.71
-1591.32
-1590.14
-1588.32
-1585.98
-1583.18
-1580.01
-1576.54
-1572.86
-1569.05
-1565.23
-1561.5
-1558
-1554.83
-1552.12
-1549.95
-1548.39
-1547.44
-1547.08
-1547.17
-1547.5
-1547.77
-1547.54
-1546.28
-1543.36
-1538.01
-1529.4
-1516.66
-1498.86
-1475.09
-1444.51
-1406.34
-1359.96
-1304.95
-1241.08
-1168.37
-1087.12
-997.877
-901.415
-798.682
-690.7
-578.444
-462.684
-343.835
-221.866
-96.886
10
0
0
0
0
0
0
0
0
0
0
-1594.96
-1594.96
-1596.73
-1597.07
-1596.32
-1594.7
-1592.39
-1589.5
-1586.13
-1582.34
-1578.23
-1573.9
-1569.45
-1565.03
-1560.77
-1556.83
-1553.35
-1550.48
-1548.33
-1546.98
-1546.48
-1546.76
-1547.72
-1549.13
-1550.65
-1551.83
-1552.11
-1550.8
-1547.11
-1540.19
-1529.11
-1512.94
-1490.75
-1461.68
-1424.95
-1379.95
-1326.24
-1263.57
-1191.96
-1111.66
-1023.15
-927.11
-824.387
-715.87
-602.403
-484.656
-362.995
-237.415
-107.891
10
0
0
0
0
0
0
0
0
0
0
-1602.91
-1602.91
-1604.38
-1604.25
-1602.93
-1600.67
-1597.67
-1594.05
-1589.91
-1585.33
-1580.42
-1575.28
-1570.06
-1564.91
-1559.99
-1555.48
-1551.56
-1548.39
-1546.11
-1544.82
-1544.54
-1545.24
-1546.78
-1548.92
-1551.3
-1553.44
-1554.75
-1554.5
-1551.89
-1546.02
-1535.98
-1520.79
-1499.54
-1471.36
-1435.49
-1391.31
-1338.38
-1276.46
-1205.53
-1125.82
-1037.77
-941.987
-839.242
-730.344
-616.073
-497.068
-373.74
-246.207
-114.508
10
0
0
0
0
0
0
0
0
0
0
-1613.43
-1613.43
-1614.29
-1613.37
-1611.15
-1607.96
-1604
-1599.4
-1594.27
-1588.71
-1582.81
-1576.72
-1570.58
-1564.56
-1558.86
-1553.66
-1549.18
-1545.58
-1543.01
-1541.58
-1541.31
-1542.15
-1543.95
-1546.45
-1549.26
-1551.87
-1553.67
-1553.91
-1551.76
-1546.32
-1536.65
-1521.8
-1500.86
-1472.95
-1437.35
-1393.43
-1340.77
-1279.14
-1208.52
-1129.11
-1041.32
-945.75
-843.109
-734.178
-619.721
-500.405
-376.731
-248.987
-117.37
10
0
0
0
0
0
0
0
0
0