# vtk DataFile Version 3.0
vtk output601
ASCII
DATASET STRUCTURED_GRID
DIMENSIONS 51 21 1
POINTS 1071 float
0 0 0
0.2 0 0
0.4 0 0
0.6 0 0
0.8 0 0
1 0 0
1.2 0 0
1.4 0 0
1.6 0 0
1.8 0 0
2 0 0
2.2 0 0
2.4 0 0
2.6 0 0
2.8 0 0
3 0 0
3.2 0 0
3.4 0 0
3.6 0 0
3.8 0 0
4 0 0
4.2 0 0
4.4 0 0
4.6 0 0
4.8 0 0
5 0 0
5.2 0 0
5.4 0 0
5.6 0 0
5.8 0 0
6 0 0
6.2 0 0
6.4 0 0
6.6 0 0
6.8 0 0
7 0 0
7.2 0 0
7.4 0 0
7.6 0 0
7.8 0 0
8 0 0
8.2 0 0
8.4 0 0
8.6 0 0
8.8 0 0
9 0 0
9.2 0 0
9.4 0 0
9.6 0 0
9.8 0 0
10 0 0
0 0.05 0
0.2 0.05 0
0.4 0.05 0
0.6 0.05 0
0.8 0.05 0
1 0.05 0
1.2 0.05 0
1.4 0.05 0
1.6 0.05 0
1.8 0.05 0
2 0.05 0
2.2 0.05 0
2.4 0.05 0
2.6 0.05 0
2.8 0.05 0
3 0.05 0
3.2 0.05 0
3.4 0.05 0
3.6 0.05 0
3.8 0.05 0
4 0.05 0
4.2 0.05 0
4.4 0.05 0
4.6 0.05 0
4.8 0.05 0
5 0.05 0
5.2 0.05 0
5.4 0.05 0
5.6 0.05 0
5.8 0.05 0
6 0.05 0
6.2 0.05 0
6.4 0.05 0
6.6 0.05 0
6.8 0.05 0
7 0.05 0
7.2 0.05 0
7.4 0.05 0
7.6 0.05 0
7.8 0.05 0
8 0.05 0
8.2 0.05 0
8.4 0.05 0
8.6 0.05 0
8.8 0.05 0
9 0.05 0
9.2 0.05 0
9.4 0.05 0
9.6 0.05 0
9.8 0.05 0
10 0.05 0
0 0.1 0
0.2 0.1 0
0.4 0.1 0
0.6 0.1 0
0.8 0.1 0
1 0.1 0
1.2 0.1 0
1.4 0.1 0
1.6 0.1 0
1.8 0.1 0
2 0.1 0
2.2 0.1 0
2.4 0.1 0
2.6 0.1 0
2.8 0.1 0
3 0.1 0
3.2 0.1 0
3.4 0.1 0
3.6 0.1 0
3.8 0.1 0
4 0.1 0
4.2 0.1 0
4.4 0.1 0
4.6 0.1 0
4.8 0.1 0
5 0.1 0
5.2 0.1 0
5.4 0.1 0
5.6 0.1 0
5.8 0.1 0
6 0.1 0
6.2 0.1 0
6.4 0.1 0
6.6 0.1 0
6.8 0.1 0
7 0.1 0
7.2 0.1 0
7.4 0.1 0
7.6 0.1 0
7.8 0.1 0
8 0.1 0
8.2 0.1 0
8.4 0.1 0
8.6 0.1 0
8.8 0.1 0
9 0.1 0
9.2 0.1 0
9.4 0.1 0
9.6 0.1 0
9.8 0.1 0
10 0.1 0
0 0.15 0
0.2 0.15 0
0.4 0.15 0
0.6 0.15 0
0.8 0.15 0
1 0.15 0
1.2 0.15 0
1.4 0.15 0
1.6 0.15 0
1.8 0.15 0
2 0.15 0
2.2 0.15 0
2.4 0.15 0
2.6 0.15 0
2.8 0.15 0
3 0.15 0
3.2 0.15 0
3.4 0.15 0
3.6 0.15 0
3.8 0.15 0
4 0.15 0
4.2 0.15 0
4.4 0.15 0
4.6 0.15 0
4.8 0.15 0
5 0.15 0
5.2 0.15 0
5.4 0.15 0
5.6 0.15 0
5.8 0.15 0
6 0.15 0
6.2 0.15 0
6.4 0.15 0
6.6 0.15 0
6.8 0.15 0
7 0.15 0
7.2 0.15 0
7.4 0.15 0
7.6 0.15 0
7.8 0.15 0
8 0.15 0
8.2 0.15 0
8.4 0.15 0
8.6 0.15 0
8.8 0.15 0
9 0.15 0
9.2 0.15 0
9.4 0.15 0
9.6 0.15 0
9.8 0.15 0
10 0.15 0
0 0.2 0
0.2 0.2 0
0.4 0.2 0
0.6 0.2 0
0.8 0.2 0
1 0.2 0
1.2 0.2 0
1.4 0.2 0
1.6 0.2 0
1.8 0.2 0
2 0.2 0
2.2 0.2 0
2.4 0.2 0
2.6 0.2 0
2.8 0.2 0
3 0.2 0
3.2 0.2 0
3.4 0.2 0
3.6 0.2 0
3.8 0.2 0
4 0.2 0
4.2 0.2 0
4.4 0.2 0
4.6 0.2 0
4.8 0.2 0
5 0.2 0
5.2 0.2 0
5.4 0.2 0
5.6 0.2 0
5.8 0.2 0
6 0.2 0
6.2 0.2 0
6.4 0.2 0
6.6 0.2 0
6.8 0.2 0
7 0.2 0
7.2 0.2 0
7.4 0.2 0
7.6 0.2 0
7.8 0.2 0
8 0.2 0
8.2 0.2 0
8.4 0.2 0
8.6 0.2 0
8.8 0.2 0
9 0.2 0
9.2 0.2 0
9.4 0.2 0
9.6 0.2 0
9.8 0.2 0
10 0.2 0
0 0.25 0
0.2 0.25 0
0.4 0.25 0
0.6 0.25 0
0.8 0.25 0
1 0.25 0
1.2 0.25 0
1.4 0.25 0
1.6 0.25 0
1.8 0.25 0
2 0.25 0
2.2 0.25 0
2.4 0.25 0
2.6 0.25 0
2.8 0.25 0
3 0.25 0
3.2 0.25 0
3.4 0.25 0
3.6 0.25 0
3.8 0.25 0
4 0.25 0
4.2 0.25 0
4.4 0.25 0
4.6 0.25 0
4.8 0.25 0
5 0.25 0
5.2 0.25 0
5.4 0.25 0
5.6 0.25 0
5.8 0.25 0
6 0.25 0
6.2 0.25 0
6.4 0.25 0
6.6 0.25 0
6.8 0.25 0
7 0.25 0
7.2 0.25 0
7.4 0.25 0
7.6 0.25 0
7.8 0.25 0
8 0.25 0
8.2 0.25 0
8.4 0.25 0
8.6 0.25 0
8.8 0.25 0
9 0.25 0
9.2 0.25 0
9.4 0.25 0
9.6 0.25 0
9.8 0.25 0
10 0.25 0
0 0.3 0
0.2 0.3 0
0.4 0.3 0
0.6 0.3 0
0.8 0.3 0
1 0.3 0
1.2 0.3 0
1.4 0.3 0
1.6 0.3 0
1.8 0.3 0
2 0.3 0
2.2 0.3 0
2.4 0.3 0
2.6 0.3 0
2.8 0.3 0
3 0.3 0
3.2 0.3 0
3.4 0.3 0
3.6 0.3 0
3.8 0.3 0
4 0.3 0
4.2 0.3 0
4.4 0.3 0
4.6 0.3 0
4.8 0.3 0
5 0.3 0
5.2 0.3 0
5.4 0.3 0
5.6 0.3 0
5.8 0.3 0
6 0.3 0
6.2 0.3 0
6.4 0.3 0
6.6 0.3 0
6.8 0.3 0
7 0.3 0
7.2 0.3 0
7.4 0.3 0
7.6 0.3 0
7.8 0.3 0
8 0.3 0
8.2 0.3 0
8.4 0.3 0
8.6 0.3 0
8.8 0.3 0
9 0.3 0
9.2 0.3 0
9.4 0.3 0
9.6 0.3 0
9.8 0.3 0
10 0.3 0
0 0.35 0
0.2 0.35 0
0.4 0.35 0
0.6 0.35 0
0.8 0.35 0
1 0.35 0
1.2 0.35 0
1.4 0.35 0
1.6 0.35 0
1.8 0.35 0
2 0.35 0
2.2 0.35 0
2.4 0.35 0
2.6 0.35 0
2.8 0.35 0
3 0.35 0
3.2 0.35 0
3.4 0.35 0
3.6 0.35 0
3.8 0.35 0
4 0.35 0
4.2 0.35 0
4.4 0.35 0
4.6 0.35 0
4.8 0.35 0
5 0.35 0
5.2 0.35 0
5.4 0.35 0
5.6 0.35 0
5.8 0.35 0
6 0.35 0
6.2 0.35 0
6.4 0.35 0
6.6 0.35 0
6.8 0.35 0
7 0.35 0
7.2 0.35 0
7.4 0.35 0
7.6 0.35 0
7.8 0.35 0
8 0.35 0
8.2 0.35 0
8.4 0.35 0
8.6 0.35 0
8.8 0.35 0
9 0.35 0
9.2 0.35 0
9.4 0.35 0
9.6 0.35 0
9.8 0.35 0
10 0.35 0
0 0.4 0
0.2 0.4 0
0.4 0.4 0
0.6 0.4 0
0.8 0.4 0
1 0.4 0
1.2 0.4 0
1.4 0.4 0
1.6 0.4 0
1.8 0.4 0
2 0.4 0
2.2 0.4 0
2.4 0.4 0
2.6 0.4 0
2.8 0.4 0
3 0.4 0
3.2 0.4 0
3.4 0.4 0
3.6 0.4 0
3.8 0.4 0
4 0.4 0
4.2 0.4 0
4.4 0.4 0
4.6 0.4 0
4.8 0.4 0
5 0.4 0
5.2 0.4 0
5.4 0.4 0
5.6 0.4 0
5.8 0.4 0
6 0.4 0
6.2 0.4 0
6.4 0.4 0
6.6 0.4 0
6.8 0.4 0
7 0.4 0
7.2 0.4 0
7.4 0.4 0
7.6 0.4 0
7.8 0.4 0
8 0.4 0
8.2 0.4 0
8.4 0.4 0
8.6 0.4 0
8.8 0.4 0
9 0.4 0
9.2 0.4 0
9.4 0.4 0
9.6 0.4 0
9.8 0.4 0
10 0.4 0
0 0.45 0
0.2 0.45 0
0.4 0.45 0
0.6 0.45 0
0.8 0.45 0
1 0.45 0
1.2 0.45 0
1.4 0.45 0
1.6 0.45 0
1.8 0.45 0
2 0.45 0
2.2 0.45 0
2.4 0.45 0
2.6 0.45 0
2.8 0.45 0
3 0.45 0
3.2 0.45 0
3.4 0.45 0
3.6 0.45 0
3.8 0.45 0
4 0.45 0
4.2 0.45 0
4.4 0.45 0
4.6 0.45 0
4.8 0.45 0
5 0.45 0
5.2 0.45 0
5.4 0.45 0
5.6 0.45 0
5.8 0.45 0
6 0.45 0
6.2 0.45 0
6.4 0.45 0
6.6 0.45 0
6.8 0.45 0
7 0.45 0
7.2 0.45 0
7.4 0.45 0
7.6 0.45 0
7.8 0.45 0
8 0.45 0
8.2 0.45 0
8.4 0.45 0
8.6 0.45 0
8.8 0.45 0
9 0.45 0
9.2 0.45 0
9.4 0.45 0
9.6 0.45 0
9.8 0.45 0
10 0.45 0
0 0.5 0
0.2 0.5 0
0.4 0.5 0
0.6 0.5 0
0.8 0.5 0
1 0.5 0
1.2 0.5 0
1.4 0.5 0
1.6 0.5 0
1.8 0.5 0
2 0.5 0
2.2 0.5 0
2.4 0.5 0
2.6 0.5 0
2.8 0.5 0
3 0.5 0
3.2 0.5 0
3.4 0.5 0
3.6 0.5 0
3.8 0.5 0
4 0.5 0
4.2 0.5 0
4.4 0.5 0
4.6 0.5 0
4.8 0.5 0
5 0.5 0
5.2 0.5 0
5.4 0.5 0
5.6 0.5 0
5.8 0.5 0
6 0.5 0
6.2 0.5 0
6.4 0.5 0
6.6 0.5 0
6.8 0.5 0
7 0.5 0
7.2 0.5 0
7.4 0.5 0
7.6 0.5 0
7.8 0.5 0
8 0.5 0
8.2 0.5 0
8.4 0.5 0
8.6 0.5 0
8.8 0.5 0
9 0.5 0
9.2 0.5 0
9.4 0.5 0
9.6 0.5 0
9.8 0.5 0
10 0.5 0
0 0.55 0
0.2 0.55 0
0.4 0.55 0
0.6 0.55 0
0.8 0.55 0
1 0.55 0
1.2 0.55 0
1.4 0.55 0
1.6 0.55 0
1.8 0.55 0
2 0.55 0
2.2 0.55 0
2.4 0.55 0
2.6 0.55 0
2.8 0.55 0
3 0.55 0
3.2 0.55 0
3.4 0.55 0
3.6 0.55 0
3.8 0.55 0
4 0.55 0
4.2 0.55 0
4.4 0.55 0
4.6 0.55 0
4.8 0.55 0
5 0.55 0
5.2 0.55 0
5.4 0.55 0
5.6 0.55 0
5.8 0.55 0
6 0.55 0
6.2 0.55 0
6.4 0.55 0
6.6 0.55 0
6.8 0.55 0
7 0.55 0
7.2 0.55 0
7.4 0.55 0
7.6 0.55 0
7.8 0.55 0
8 0.55 0
8.2 0.55 0
8.4 0.55 0
8.6 0.55 0
8.8 0.55 0
9 0.55 0
9.2 0.55 0
9.4 0.55 0
9.6 0.55 0
9.8 0.55 0
10 0.55 0
0 0.6 0
0.2 0.6 0
0.4 0.6 0
0.6 0.6 0
0.8 0.6 0
1 0.6 0
1.2 0.6 0
1.4 0.6 0
1.6 0.6 0
1.8 0.6 0
2 0.6 0
2.2 0.6 0
2.4 0.6 0
2.6 0.6 0
2.8 0.6 0
3 0.6 0
3.2 0.6 0
3.4 0.6 0
3.6 0.6 0
3.8 0.6 0
4 0.6 0
4.2 0.6 0
4.4 0.6 0
4.6 0.6 0
4.8 0.6 0
5 0.6 0
5.2 0.6 0
5.4 0.6 0
5.6 0.6 0
5.8 0.6 0
6 0.6 0
6.2 0.6 0
6.4 0.6 0
6.6 0.6 0
6.8 0.6 0
7 0.6 0
7.2 0.6 0
7.4 0.6 0
7.6 0.6 0
7.8 0.6 0
8 0.6 0
8.2 0.6 0
8.4 0.6 0
8.6 0.6 0
8.8 0.6 0
9 0.6 0
9.2 0.6 0
9.4 0.6 0
9.6 0.6 0
9.8 0.6 0
10 0.6 0
0 0.65 0
0.2 0.65 0
0.4 0.65 0
0.6 0.65 0
0.8 0.65 0
1 0.65 0
1.2 0.65 0
1.4 0.65 0
1.6 0.65 0
1.8 0.65 0
2 0.65 0
2.2 0.65 0
2.4 0.65 0
2.6 0.65 0
2.8 0.65 0
3 0.65 0
3.2 0.65 0
3.4 0.65 0
3.6 0.65 0
3.8 0.65 0
4 0.65 0
4.2 0.65 0
4.4 0.65 0
4.6 0.65 0
4.8 0.65 0
5 0.65 0
5.2 0.65 0
5.4 0.65 0
5.6 0.65 0
5.8 0.65 0
6 0.65 0
6.2 0.65 0
6.4 0.65 0
6.6 0.65 0
6.8 0.65 0
7 0.65 0
7.2 0.65 0
7.4 0.65 0
7.6 0.65 0
7.8 0.65 0
8 0.65 0
8.2 0.65 0
8.4 0.65 0
8.6 0.65 0
8.8 0.65 0
9 0.65 0
9.2 0.65 0
9.4 0.65 0
9.6 0.65 0
9.8 0.65 0
10 0.65 0
0 0.7 0
0.2 0.7 0
0.4 0.7 0
0.6 0.7 0
0.8 0.7 0
1 0.7 0
1.2 0.7 0
1.4 0.7 0
1.6 0.7 0
1.8 0.7 0
2 0.7 0
2.2 0.7 0
2.4 0.7 0
2.6 0.7 0
2.8 0.7 0
3 0.7 0
3.2 0.7 0
3.4 0.7 0
3.6 0.7 0
3.8 0.7 0
4 0.7 0
4.2 0.7 0
4.4 0.7 0
4.6 0.7 0
4.8 0.7 0
5 0.7 0
5.2 0.7 0
5.4 0.7 0
5.6 0.7 0
5.8 0.7 0
6 0.7 0
6.2 0.7 0
6.4 0.7 0
6.6 0.7 0
6.8 0.7 0
7 0.7 0
7.2 0.7 0
7.4 0.7 0
7.6 0.7 0
7.8 0.7 0
8 0.7 0
8.2 0.7 0
8.4 0.7 0
8.6 0.7 0
8.8 0.7 0
9 0.7 0
9.2 0.7 0
9.4 0.7 0
9.6 0.7 0
9.8 0.7 0
10 0.7 0
0 0.75 0
0.2 0.75 0
0.4 0.75 0
0.6 0.75 0
0.8 0.75 0
1 0.75 0
1.2 0.75 0
1.4 0.75 0
1.6 0.75 0
1.8 0.75 0
2 0.75 0
2.2 0.75 0
2.4 0.75 0
2.6 0.75 0
2.8 0.75 0
3 0.75 0
3.2 0.75 0
3.4 0.75 0
3.6 0.75 0
3.8 0.75 0
4 0.75 0
4.2 0.75 0
4.4 0.75 0
4.6 0.75 0
4.8 0.75 0
5 0.75 0
5.2 0.75 0
5.4 0.75 0
5.6 0.75 0
5.8 0.75 0
6 0.75 0
6.2 0.75 0
6.4 0.75 0
6.6 0.75 0
6.8 0.75 0
7 0.75 0
7.2 0.75 0
7.4 0.75 0
7.6 0.75 0
7.8 0.75 0
8 0.75 0
8.2 0.75 0
8.4 0.75 0
8.6 0.75 0
8.8 0.75 0
9 0.75 0
9.2 0.75 0
9.4 0.75 0
9.6 0.75 0
9.8 0.75 0
10 0.75 0
0 0.8 0
0.2 0.8 0
0.4 0.8 0
0.6 0.8 0
0.8 0.8 0
1 0.8 0
1.2 0.8 0
1.4 0.8 0
1.6 0.8 0
1.8 0.8 0
2 0.8 0
2.2 0.8 0
2.4 0.8 0
2.6 0.8 0
2.8 0.8 0
3 0.8 0
3.2 0.8 0
3.4 0.8 0
3.6 0.8 0
3.8 0.8 0
4 0.8 0
4.2 0.8 0
4.4 0.8 0
4.6 0.8 0
4.8 0.8 0
5 0.8 0
5.2 0.8 0
5.4 0.8 0
5.6 0.8 0
5.8 0.8 0
6 0.8 0
6.2 0.8 0
6.4 0.8 0
6.6 0.8 0
6.8 0.8 0
7 0.8 0
7.2 0.8 0
7.4 0.8 0
7.6 0.8 0
7.8 0.8 0
8 0.8 0
8.2 0.8 0
8.4 0.8 0
8.6 0.8 0
8.8 0.8 0
9 0.8 0
9.2 0.8 0
9.4 0.8 0
9.6 0.8 0
9.8 0.8 0
10 0.8 0
0 0.85 0
0.2 0.85 0
0.4 0.85 0
0.6 0.85 0
0.8 0.85 0
1 0.85 0
1.2 0.85 0
1.4 0.85 0
1.6 0.85 0
1.8 0.85 0
2 0.85 0
2.2 0.85 0
2.4 0.85 0
2.6 0.85 0
2.8 0.85 0
3 0.85 0
3.2 0.85 0
3.4 0.85 0
3.6 0.85 0
3.8 0.85 0
4 0.85 0
4.2 0.85 0
4.4 0.85 0
4.6 0.85 0
4.8 0.85 0
5 0.85 0
5.2 0.85 0
5.4 0.85 0
5.6 0.85 0
5.8 0.85 0
6 0.85 0
6.2 0.85 0
6.4 0.85 0
6.6 0.85 0
6.8 0.85 0
7 0.85 0
7.2 0.85 0
7.4 0.85 0
7.6 0.85 0
7.8 0.85 0
8 0.85 0
8.2 0.85 0
8.4 0.85 0
8.6 0.85 0
8.8 0.85 0
9 0.85 0
9.2 0.85 0
9.4 0.85 0
9.6 0.85 0
9.8 0.85 0
10 0.85 0
0 0.9 0
0.2 0.9 0
0.4 0.9 0
0.6 0.9 0
0.8 0.9 0
1 0.9 0
1.2 0.9 0
1.4 0.9 0
1.6 0.9 0
1.8 0.9 0
2 0.9 0
2.2 0.9 0
2.4 0.9 0
2.6 0.9 0
2.8 0.9 0
3 0.9 0
3.2 0.9 0
3.4 0.9 0
3.6 0.9 0
3.8 0.9 0
4 0.9 0
4.2 0.9 0
4.4 0.9 0
4.6 0.9 0
4.8 0.9 0
5 0.9 0
5.2 0.9 0
5.4 0.9 0
5.6 0.9 0
5.8 0.9 0
6 0.9 0
6.2 0.9 0
6.4 0.9 0
6.6 0.9 0
6.8 0.9 0
7 0.9 0
7.2 0.9 0
7.4 0.9 0
7.6 0.9 0
7.8 0.9 0
8 0.9 0
8.2 0.9 0
8.4 0.9 0
8.6 0.9 0
8.8 0.9 0
9 0.9 0
9.2 0.9 0
9.4 0.9 0
9.6 0.9 0
9.8 0.9 0
10 0.9 0
0 0.95 0
0.2 0.95 0
0.4 0.95 0
0.6 0.95 0
0.8 0.95 0
1 0.95 0
1.2 0.95 0
1.4 0.95 0
1.6 0.95 0
1.8 0.95 0
2 0.95 0
2.2 0.95 0
2.4 0.95 0
2.6 0.95 0
2.8 0.95 0
3 0.95 0
3.2 0.95 0
3.4 0.95 0
3.6 0.95 0
3.8 0.95 0
4 0.95 0
4.2 0.95 0
4.4 0.95 0
4.6 0.95 0
4.8 0.95 0
5 0.95 0
5.2 0.95 0
5.4 0.95 0
5.6 0.95 0
5.8 0.95 0
6 0.95 0
6.2 0.95 0
6.4 0.95 0
6.6 0.95 0
6.8 0.95 0
7 0.95 0
7.2 0.95 0
7.4 0.95 0
7.6 0.95 0
7.8 0.95 0
8 0.95 0
8.2 0.95 0
8.4 0.95 0
8.6 0.95 0
8.8 0.95 0
9 0.95 0
9.2 0.95 0
9.4 0.95 0
9.6 0.95 0
9.8 0.95 0
10 0.95 0
0 1 0
0.2 1 0
0.4 1 0
0.6 1 0
0.8 1 0
1 1 0
1.2 1 0
1.4 1 0
1.6 1 0
1.8 1 0
2 1 0
2.2 1 0
2.4 1 0
2.6 1 0
2.8 1 0
3 1 0
3.2 1 0
3.4 1 0
3.6 1 0
3.8 1 0
4 1 0
4.2 1 0
4.4 1 0
4.6 1 0
4.8 1 0
5 1 0
5.2 1 0
5.4 1 0
5.6 1 0
5.8 1 0
6 1 0
6.2 1 0
6.4 1 0
6.6 1 0
6.8 1 0
7 1 0
7.2 1 0
7.4 1 0
7.6 1 0
7.8 1 0
8 1 0
8.2 1 0
8.4 1 0
8.6 1 0
8.8 1 0
9 1 0
9.2 1 0
9.4 1 0
9.6 1 0
9.8 1 0
10 1 0

CELL_DATA 1000
SCALARS phi float
LOOKUP_TABLE default 
4.711
4.711
4.711
4.711
4.711
4.711
4.711
4.711
4.711
4.711
4.711
4.711
4.711
4.711
4.711
4.711
4.711
4.711
4.711
4.711
4.711
4.711
4.711
4.711
4.711
4.711
4.711
4.711
4.711
4.711
4.711
4.711
4.711
4.711
4.711
4.711
4.711
4.711
4.711
4.711
4.711
4.711
4.711
4.711
4.711
4.711
4.711
4.711
4.711
4.711
4.711
4.711
4.711
4.711
4.711
4.711
4.711
4.711
4.711
4.711
4.711
4.711
4.711
4.711
4.711
4.711
4.711
4.711
4.711
4.711
4.711
4.711
4.711
4.711
4.711
4.711
4.711
4.711
4.711
4.711
4.711
4.711
4.711
4.711
4.711
4.711
4.711
4.711
4.711
4.711
4.711
4.711
4.711
4.711
4.711
4.711
4.711
4.711
4.711
4.711
4.711
4.711
4.711
4.711
4.711
4.711
4.711
4.711
4.711
4.711
4.711
4.711
4.711
4.711
4.711
4.711
4.711
4.711
4.711
4.711
4.711
4.711
4.711
4.711
4.711
4.711
4.711
4.711
4.711
4.711
4.711
4.711
4.711
4.711
4.711
4.711
4.711
4.711
4.711
4.711
4.711
4.711
4.711
4.711
4.711
4.711
4.711
4.711
4.711
4.711
4.711
4.711
4.711
4.711
4.711
4.711
4.711
4.711
4.711
4.711
4.711
4.711
4.711
4.711
4.711
4.711
4.711
4.711
4.711
4.711
4.711
4.711
4.711
4.711
4.711
4.711
4.711
4.711
4.711
4.711
4.711
4.711
4.711
4.711
4.711
4.711
4.711
4.711
4.711
4.711
4.711
4.711
4.711
4.711
4.711
4.711
4.711
4.711
4.711
4.711
4.711
4.711
4.711
4.711
4.711
4.711
4.711
4.711
4.711
4.711
4.711
4.711
4.711
4.711
4.711
4.711
4.711
4.711
4.711
4.711
4.711
4.711
4.711
4.711
4.711
4.711
4.711
4.711
4.711
4.711
4.711
4.711
4.711
4.711
4.711
4.711
4.711
4.711
4.711
4.711
4.711
4.711
4.711
4.711
4.711
4.711
4.711
4.711
4.711
4.711
4.711
4.711
4.711
4.711
4.711
4.711
4.711
4.711
4.711
4.711
4.711
4.711
4.711
4.711
4.711
4.711
4.711
4.711
4.711
4.711
4.711
4.711
4.711
4.711
4.711
4.711
4.711
4.711
4.711
4.711
4.711
4.711
4.711
4.711
4.711
4.711
4.711
4.711
4.711
4.711
4.711
4.711
4.711
4.711
4.711
4.711
4.711
4.711
4.711
4.711
4.711
4.711
4.711
4.711
4.711
4.711
4.711
4.711
4.711
4.711
4.711
4.711
4.711
4.711
4.711
4.711
4.711
4.711
4.711
4.711
4.711
4.711
4.711
4.711
4.711
4.711
4.711
4.711
4.711
4.711
4.711
4.711
4.711
4.711
4.711
4.711
4.711
4.711
4.711
4.711
4.711
4.711
4.711
4.711
4.711
4.711
4.711
4.711
4.711
4.711
4.711
4.711
4.711
4.711
4.711
4.711
4.711
4.711
4.711
4.711
4.711
4.711
4.711
4.711
4.711
4.711
4.711
4.711
4.711
4.711
4.711
4.711
4.711
4.711
4.711
4.711
4.711
4.711
4.711
4.711
4.711
4.711
4.711
4.711
4.711
4.711
4.711
4.711
4.711
4.711
4.711
4.711
4.711
4.711
4.711
4.711
4.711
4.711
4.711
4.711
4.711
4.711
4.711
4.711
4.711
4.711
4.711
4.711
4.711
4.711
4.711
4.711
4.711
4.711
4.711
4.711
4.711
4.711
4.711
4.711
4.711
4.711
4.711
4.711
4.711
4.711
4.711
4.711
4.711
4.711
4.711
4.711
4.711
4.711
4.711
4.711
4.711
4.711
4.711
4.711
4.711
4.711
4.711
4.711
4.711
4.711
4.711
4.711
4.711
4.711
4.711
4.711
4.711
4.711
4.711
4.711
4.711
4.711
4.711
4.711
4.711
4.711
4.711
4.711
4.711
4.711
4.711
4.711
4.711
4.711
4.711
4.711
4.711
4.711
4.711
4.711
4.711
4.711
4.711
4.711
4.711
4.711
4.711
4.711
4.711
4.711
4.711
4.711
4.711
4.711
4.711
4.711
4.711
4.711
4.711
4.711
4.711
4.711
4.711
4.711
4.711
4.711
4.711
4.711
4.711
4.711
4.711
4.711
4.711
4.711
4.711
4.711
4.711
4.711
4.711
4.711
4.711
4.711
4.711
4.711
4.711
4.711
4.711
4.711
4.711
4.711
4.711
4.711
4.711
4.711
4.711
4.711
4.711
4.711
4.711
4.711
4.711
4.711
4.711
4.711
4.711
4.711
4.711
4.711
4.711
4.711
4.711
4.711
4.711
4.711
4.711
4.711
4.711
4.711
4.711
4.711
4.711
4.711
4.711
4.711
4.711
4.711
4.711
4.711
4.711
4.711
4.711
4.711
4.711
4.711
4.711
4.711
4.711
4.711
4.711
4.711
4.711
4.711
4.711
4.711
4.711
4.711
4.711
4.711
4.711
4.711
4.711
4.711
4.711
4.711
4.711
4.711
4.711
4.711
4.711
4.711
4.711
4.711
4.711
4.711
4.711
4.711
4.711
4.711
4.711
4.711
4.711
4.711
4.711
4.711
4.711
4.711
4.711
4.711
4.711
4.711
4.711
4.711
4.711
4.711
4.711
4.711
4.711
4.711
4.711
4.711
4.711
4.711
4.711
4.711
4.711
4.711
4.711
4.711
4.711
4.711
4.711
4.711
4.711
4.711
4.711
4.711
4.711
4.711
4.711
4.711
4.711
4.711
4.711
4.711
4.711
4.711
4.711
4.711
4.711
4.711
4.711
4.711
4.711
4.711
4.711
4.711
4.711
4.711
4.711
4.711
4.711
4.711
4.711
4.711
4.711
4.711
4.711
4.711
4.711
4.711
4.711
4.711
4.711
4.711
4.711
4.711
4.711
4.711
4.711
4.711
4.711
4.711
4.711
4.711
4.711
4.711
4.711
4.711
4.711
4.711
4.711
4.711
4.711
4.711
4.711
4.711
4.711
4.711
4.711
4.711
4.711
4.711
4.711
4.711
4.711
4.711
4.711
4.711
4.711
4.711
4.711
4.711
4.711
4.711
4.711
4.711
4.711
4.711
4.711
4.711
4.711
4.711
4.711
4.711
4.711
4.711
4.711
4.711
4.711
4.711
4.711
4.711
4.711
4.711
4.711
4.711
4.711
4.711
4.711
4.711
4.711
4.711
4.711
4.711
4.711
4.711
4.711
4.711
4.711
4.711
4.711
4.711
4.711
4.711
4.711
4.711
4.711
4.711
4.711
4.711
4.711
4.711
4.711
4.711
4.711
4.711
4.711
4.711
4.711
4.711
4.711
4.711
4.711
4.711
4.711
4.711
4.711
4.711
4.711
4.711
4.711
4.711
4.711
4.711
4.711
4.711
4.711
4.711
4.711
4.711
4.711
4.711
4.711
4.711
4.711
4.711
4.711
4.711
4.711
4.711
4.711
4.711
4.711
4.711
4.711
4.711
4.711
4.711
4.711
4.711
4.711
4.711
4.711
4.711
4.711
4.711
4.711
4.711
4.711
4.711
4.711
4.711
4.711
4.711
4.711
4.711
4.711
4.711
4.711
4.711
4.711
4.711
4.711
4.711
4.711
4.711
4.711
4.711
4.711
4.711
4.711
4.711
4.711
4.711
4.711
4.711
4.711
4.711
4.711
4.711
4.711
4.711
4.711
4.711
4.711
4.711
4.711
4.711
4.711
4.711
4.711
4.711
4.711
4.711
4.711
4.711
4.711
4.711
4.711
4.711
4.711
4.711
4.711
4.711
4.711
4.711
4.711
4.711
4.711
4.711
4.711
4.711
4.711
4.711
4.711
4.711
4.711
4.711
4.711
4.711
4.711
4.711
4.711
4.711
4.711
4.711
4.711
4.711
4.711
4.711
4.711
4.711
4.711
4.711
4.711
4.711
4.711
4.711
4.711
4.711
4.711
4.711
4.711
4.711
4.711
4.711
4.711
4.711
4.711
4.711
4.711
4.711
4.711
4.711
4.711
4.711
4.711
4.711
4.711
4.711
4.711
4.711
4.711
4.711
4.711
4.711
4.711
4.711
4.711
4.711
4.711
4.711
4.711
4.711
4.711
4.711
4.711
4.711
4.711
4.711
4.711
4.711
4.711
4.711
4.711
4.711
4.711
4.711
4.711
4.711
4.711
4.711
4.711
4.711
4.711
4.711
4.711
4.711
4.711
4.711
4.711
4.711
4.711
4.711
4.711
4.711
4.711
4.711
4.711
4.711
4.711
4.711
4.711
4.711
4.711
4.711
4.711
4.711
4.711
4.711
4.711
4.711
4.711
4.711

SCALARS p float
LOOKUP_TABLE default 
1309.55
1309.55
1288.97
1269.36
1252.08
1239.12
1234.14
1234.14
0
0
0
0
740.77
740.77
740.77
735.497
723.57
706.996
687.634
666.745
645.088
623.087
600.964
578.825
556.714
534.646
512.62
490.632
468.677
446.749
424.844
402.958
381.088
359.231
337.383
315.542
293.706
271.871
250.039
228.208
206.38
184.554
162.732
140.913
119.096
97.2789
75.4615
53.6428
31.8225
10
1309.55
1309.55
1288.97
1269.36
1252.08
1239.12
1234.14
1234.14
0
0
0
0
740.77
740.77
740.77
735.497
723.57
706.996
687.634
666.745
645.088
623.087
600.964
578.825
556.714
534.646
512.62
490.632
468.677
446.749
424.844
402.958
381.088
359.231
337.383
315.542
293.706
271.871
250.039
228.208
206.38
184.554
162.732
140.913
119.096
97.2789
75.4615
53.6428
31.8225
10
1309.72
1309.72
1289.04
1269.53
1252.41
1239.77
1235.59
1235.59
0
0
0
0
739.65
739.65
739.65
734.468
722.659
706.246
687.045
666.294
644.747
622.831
600.773
578.681
556.606
534.564
512.558
490.585
468.64
446.72
424.822
402.941
381.075
359.221
337.375
315.536
293.701
271.868
250.036
228.206
206.378
184.553
162.731
140.912
119.095
97.2784
75.4612
53.6425
31.8223
10
1309.8
1309.8
1288.98
1269.48
1252.34
1239.66
1235.79
1235.79
0
0
0
0
738.9
738.9
738.9
733.739
721.903
705.556
686.463
665.826
644.381
622.55
600.558
578.518
556.482
534.47
512.486
490.53
468.598
446.688
424.796
402.921
381.059
359.209
337.366
315.529
293.696
271.864
250.033
228.203
206.376
184.551
162.73
140.911
119.094
97.2778
75.4606
53.6421
31.822
10
1309.69
1309.69
1288.78
1269.18
1251.82
1238.64
1234.12
1234.12
0
0
0
0
738.585
738.585
738.585
733.235
721.222
704.862
685.843
665.309
643.967
622.227
600.31
578.329
556.338
534.359
512.402
490.465
468.548
446.65
424.767
402.898
381.042
359.195
337.356
315.521
293.689
271.859
250.029
228.2
206.374
184.55
162.729
140.91
119.093
97.277
75.46
53.6416
31.8217
10
1309.39
1309.39
1288.43
1268.64
1250.82
1236.62
1229.9
1229.9
0
0
0
0
738.839
738.839
738.839
732.879
720.544
704.109
685.143
664.713
643.484
621.847
600.016
578.104
556.166
534.229
512.302
490.389
468.49
446.604
424.732
402.871
381.021
359.179
337.343
315.511
293.682
271.853
250.024
228.197
206.371
184.548
162.727
140.909
119.092
97.2762
75.4593
53.6411
31.8214
10
1308.95
1308.95
1287.93
1267.86
1249.36
1233.62
1222.48
1222.48
1000.45
929.895
876.261
820.709
739.782
739.781
739.781
732.599
719.813
703.259
684.338
664.021
642.92
621.402
599.671
577.839
555.964
534.075
512.184
490.299
468.421
446.551
424.691
402.84
380.996
359.16
337.328
315.5
293.673
271.846
250.019
228.193
206.368
184.545
162.725
140.907
119.091
97.2752
75.4585
53.6405
31.8211
10
1308.4
1308.4
1287.32
1266.87
1247.51
1229.84
1213.54
1186.68
1000.45
929.895
876.261
820.709
749.025
744.273
740.9
732.336
718.999
702.295
683.42
663.228
642.273
620.89
599.274
577.535
555.733
533.898
512.05
490.196
468.342
446.49
424.644
402.803
380.968
359.138
337.311
315.487
293.663
271.838
250.013
228.188
206.364
184.542
162.723
140.906
119.09
97.2741
75.4577
53.6399
31.8207
10
1307.8
1307.8
1286.61
1265.72
1245.38
1225.58
1204.22
1164.97
1012.97
937.122
880.197
823.923
760.946
749.044
742.21
732.077
718.104
701.225
682.398
662.346
641.553
620.322
598.835
577.199
555.476
533.703
511.901
490.082
468.254
446.423
424.592
402.763
380.937
359.114
337.293
315.472
293.651
271.829
250.006
228.183
206.36
184.539
162.72
140.904
119.088
97.2729
75.4568
53.6392
31.8203
10
1307.19
1307.19
1285.86
1264.48
1243.09
1221.13
1195.31
1149.18
1022.87
945.014
885.306
828.733
771.865
754.062
743.673
731.828
717.146
700.073
681.298
661.399
640.782
619.715
598.366
576.84
555.203
533.495
511.742
489.96
468.161
446.351
424.537
402.72
380.904
359.088
337.273
315.457
293.639
271.82
249.999
228.177
206.356
184.536
162.718
140.902
119.087
97.2717
75.4558
53.6386
31.8198
10
1306.6
1306.6
1285.09
1263.21
1240.77
1216.77
1187.28
1137.61
1030.39
952.81
891.108
834.434
781.648
759.067
745.218
731.591
716.156
698.876
680.158
660.421
639.989
619.092
597.886
576.474
554.924
533.283
511.581
489.837
468.067
446.279
424.481
402.677
380.87
359.062
337.252
315.441
293.627
271.81
249.991
228.171
206.351
184.532
162.715
140.899
119.085
97.2704
75.4549
53.6379
31.8194
10
1306.07
1306.07
1284.35
1261.99
1238.57
1212.74
1180.38
1129.15
1036.02
959.996
897.064
840.38
790.167
763.784
746.738
731.354
715.16
697.675
679.019
659.449
639.205
618.48
597.416
576.116
554.653
533.078
511.424
489.718
467.975
446.208
424.426
402.635
380.838
359.037
337.233
315.425
293.615
271.801
249.984
228.166
206.347
184.529
162.712
140.897
119.083
97.2692
75.454
53.6373
31.819
10
1305.61
1305.61
1283.68
1260.87
1236.58
1209.21
1174.71
1123.07
1040.27
966.307
902.726
846.053
797.35
767.97
748.109
731.091
714.18
696.508
677.923
658.521
638.462
617.902
596.974
575.781
554.4
532.886
511.278
489.606
467.889
446.142
424.375
402.595
380.807
359.013
337.214
315.411
293.604
271.792
249.977
228.16
206.343
184.526
162.71
140.896
119.082
97.2681
75.4532
53.6367
31.8186
10
1305.24
1305.24
1283.11
1259.92
1234.9
1206.31
1170.28
1118.84
1043.52
971.639
907.776
851.086
803.172
771.452
749.221
730.771
713.23
695.408
676.904
657.668
637.784
617.379
596.577
575.481
554.173
532.714
511.148
489.506
467.813
446.084
424.33
402.56
380.78
358.992
337.198
315.398
293.594
271.784
249.971
228.156
206.339
184.523
162.708
140.894
119.081
97.2671
75.4525
53.6362
31.8183
10
1304.95
1304.95
1282.66
1259.18
1233.59
1204.09
1167.04
1116.06
1046.04
975.982
912.019
855.244
807.651
774.123
749.99
730.367
712.321
694.4
675.989
656.911
637.189
616.923
596.231
575.22
553.977
532.565
511.035
489.42
467.747
446.033
424.291
402.53
380.756
358.973
337.183
315.387
293.585
271.777
249.966
228.152
206.336
184.52
162.706
140.892
119.079
97.2663
75.4518
53.6357
31.818
10
1304.71
1304.71
1282.34
1258.67
1232.7
1202.59
1164.94
1114.46
1048.05
979.377
915.353
858.407
810.835
775.943
750.369
729.863
711.459
693.497
675.192
656.262
636.683
616.537
595.94
575.001
553.811
532.44
510.939
489.347
467.691
445.99
424.257
402.504
380.736
358.958
337.171
315.377
293.577
271.771
249.961
228.148
206.333
184.518
162.704
140.891
119.079
97.2655
75.4513
53.6353
31.8178
10
1304.5
1304.5
1282.17
1258.4
1232.22
1201.8
1163.86
1113.85
1049.69
981.903
917.754
860.548
812.808
776.92
750.344
729.251
710.643
692.702
674.512
655.719
636.263
616.219
595.7
574.82
553.674
532.336
510.86
489.286
467.644
445.953
424.229
402.482
380.719
358.944
337.161
315.369
293.571
271.766
249.957
228.145
206.331
184.517
162.703
140.89
119.078
97.2649
75.4507
53.6349
31.8175
10
1304.3
1304.3
1282.14
1258.35
1232.14
1201.67
1163.74
1114.1
1051.12
983.68
919.267
861.722
813.678
777.104
749.921
728.524
709.864
692.003
673.939
655.27
635.92
615.96
595.505
574.672
553.561
532.249
510.793
489.235
467.604
445.923
424.206
402.464
380.705
358.933
337.152
315.362
293.565
271.762
249.954
228.142
206.329
184.515
162.702
140.889
119.077
97.2643
75.4503
53.6345
31.8172
10
1304.16
1304.16
1282.22
1258.52
1232.43
1202.16
1164.5
1115.18
1052.48
984.864
920.008
862.021
813.569
776.558
749.114
727.671
709.101
691.379
673.453
654.901
635.642
615.75
595.346
574.551
553.469
532.178
510.738
489.192
467.571
445.897
424.185
402.448
380.693
358.923
337.144
315.356
293.56
271.758
249.951
228.14
206.327
184.514
162.701
140.889
119.077
97.2638
75.4498
53.6341
31.8169
10
1304.16
1304.16
1282.22
1258.52
1232.43
1202.16
1164.5
1115.18
1052.48
984.864
920.008
862.021
813.569
776.558
749.114
727.671
709.101
691.379
673.453
654.901
635.642
615.75
595.346
574.551
553.469
532.178
510.738
489.192
467.571
445.897
424.185
402.448
380.693
358.923
337.144
315.356
293.56
271.758
249.951
228.14
206.327
184.514
162.701
140.889
119.077
97.2638
75.4498
53.6341
31.8169
10

SCALARS  u float
LOOKUP_TABLE default 
0.898438
0.55415
0.573677
0.570197
0.552589
0.529362
0.637111
2.28503
0
0
0
0
-1.44128
-0.0730018
0.171726
0.279953
0.360744
0.4217
0.467215
0.501134
0.526567
0.545862
0.560726
0.57237
0.581645
0.589151
0.595314
0.600439
0.604748
0.60841
0.61155
0.614268
0.616639
0.618724
0.620573
0.622224
0.623709
0.625052
0.626274
0.627392
0.62842
0.629369
0.630249
0.63107
0.631838
0.632558
0.633236
0.633865
0.634384
0.634384
3.18751
2.82565
2.85757
2.82307
2.72732
2.56981
2.66437
6.02816
0
0
0
0
-3.37761
0.273975
1.09765
1.54374
1.89456
2.16388
2.36633
2.51731
2.63006
2.7149
2.77946
2.82926
2.86824
2.89916
2.92403
2.94426
2.96091
2.97475
2.98637
2.99621
3.00463
3.01189
3.01822
3.02377
3.02869
3.03307
3.03702
3.04058
3.04383
3.0468
3.04954
3.05207
3.05443
3.05664
3.0587
3.06062
3.06222
3.06223
5.23342
4.88794
4.90102
4.84688
4.70754
4.46953
4.50015
8.02021
0
0
0
0
-4.07369
0.800567
2.02889
2.72909
3.2801
3.7088
4.03702
4.28633
4.47557
4.61987
4.73079
4.81693
4.88461
4.93839
4.98163
5.01676
5.0456
5.06951
5.08951
5.10641
5.12081
5.1332
5.14394
5.15335
5.16165
5.16903
5.17565
5.18163
5.18706
5.19203
5.1966
5.20083
5.20476
5.20842
5.21185
5.21504
5.21772
5.21774
7.0233
6.71018
6.70302
6.63809
6.48196
6.20697
6.14725
9.17193
0
0
0
0
-3.96445
1.57091
3.01577
3.88518
4.56666
5.10207
5.51878
5.84098
6.08965
6.282
6.43161
6.54886
6.64156
6.71557
6.77522
6.82376
6.86364
6.89671
6.92438
6.94774
6.96764
6.98475
6.99959
7.01257
7.02403
7.03421
7.04335
7.05159
7.05908
7.06594
7.07225
7.07808
7.0835
7.08856
7.0933
7.0977
7.10144
7.10148
8.55356
8.27573
8.25754
8.19068
8.03793
7.76286
7.62265
9.83424
0
0
0
0
-3.10352
2.63464
4.12213
5.06907
5.80843
6.39386
6.85608
7.21929
7.50401
7.72735
7.90313
8.04223
8.15305
8.24204
8.31408
8.37291
8.42138
8.46165
8.49542
8.52399
8.54837
8.56937
8.58761
8.6036
8.61773
8.63033
8.64163
8.65186
8.66117
8.66969
8.67755
8.68483
8.6916
8.69792
8.70385
8.70937
8.7141
8.71414
9.82492
9.57844
9.55867
9.49825
9.36402
9.12107
8.94355
9.94936
0
0
0
0
-1.15908
4.03593
5.41317
6.33284
7.05189
7.62707
8.08784
8.45556
8.74815
8.98079
9.16607
9.31417
9.43318
9.52943
9.60783
9.67219
9.72546
9.76994
9.80739
9.83921
9.86648
9.89007
9.91065
9.92877
9.94485
9.95923
9.97219
9.98396
9.99471
10.0046
10.0137
10.0222
10.0301
10.0375
10.0444
10.0509
10.0565
10.0566
10.8393
10.6178
10.6029
10.5556
10.4509
10.2669
10.149
11.5032
5.31869
4.13462
3.66916
3.58891
3.09693
5.85985
6.93536
7.7068
8.32338
8.82696
9.23821
9.57226
9.8423
10.0601
10.2357
10.3777
10.4929
10.587
10.6642
10.7281
10.7814
10.8263
10.8643
10.8969
10.925
10.9495
10.9711
10.9902
11.0073
11.0227
11.0366
11.0494
11.0611
11.0719
11.0819
11.0912
11.1
11.1082
11.1159
11.1232
11.1295
11.1295
11.5987
11.3958
11.3892
11.3595
11.2913
11.1824
11.1976
12.4492
10.4317
8.82743
8.01002
7.73332
7.18639
8.0596
8.66745
9.17626
9.61538
9.99146
10.3089
10.5734
10.7917
10.9709
11.1177
11.238
11.3371
11.4189
11.487
11.544
11.5922
11.6333
11.6686
11.6992
11.726
11.7496
11.7706
11.7894
11.8065
11.822
11.8362
11.8492
11.8613
11.8726
11.8831
11.893
11.9022
11.911
11.9192
11.927
11.9338
11.9338
12.1043
11.9143
11.9175
11.9078
11.8798
11.8512
12.0043
13.1746
12.9813
12.035
11.3235
10.9726
10.4241
10.3543
10.4694
10.6614
10.8757
11.0844
11.2744
11.4408
11.5833
11.7039
11.8053
11.8905
11.9623
12.023
12.0748
12.1191
12.1575
12.1909
12.2204
12.2464
12.2697
12.2907
12.3098
12.3272
12.3431
12.3579
12.3716
12.3843
12.3963
12.4075
12.4181
12.428
12.4375
12.4464
12.4549
12.4629
12.47
12.47
12.357
12.175
12.1884
12.1997
12.2127
12.2619
12.5309
13.6212
14.1907
13.9255
13.5431
13.274
12.7946
12.3586
12.1189
12.0227
12.0085
12.0359
12.0818
12.1337
12.1856
12.2344
12.2794
12.3202
12.357
12.3904
12.4206
12.448
12.4731
12.4961
12.5173
12.5369
12.5552
12.5722
12.5881
12.603
12.6171
12.6304
12.6429
12.6548
12.6661
12.6768
12.6871
12.6968
12.7061
12.7149
12.7234
12.7314
12.7385
12.7385
12.3573
12.1787
12.2021
12.2345
12.2875
12.408
12.7684
13.7886
14.653
14.8569
14.8077
14.696
14.3355
13.8259
13.4024
13.0998
12.8931
12.7531
12.6584
12.5947
12.5526
12.5261
12.5109
12.504
12.5031
12.5065
12.513
12.5218
12.532
12.5433
12.5551
12.5673
12.5796
12.5918
12.6039
12.6158
12.6275
12.6388
12.6497
12.6603
12.6706
12.6805
12.69
12.6992
12.7081
12.7165
12.7247
12.7325
12.7394
12.7394
12.1051
11.9254
11.9584
12.0113
12.1024
12.2862
12.7175
13.682
14.6429
15.1244
15.325
15.3658
15.1307
14.6654
14.1802
13.7579
13.4133
13.1395
12.9252
12.7593
12.6326
12.5372
12.4665
12.4153
12.3791
12.3544
12.3387
12.3297
12.3257
12.3256
12.3283
12.3331
12.3395
12.3469
12.3551
12.3638
12.3727
12.3819
12.391
12.4002
12.4091
12.418
12.4266
12.435
12.4432
12.4511
12.4587
12.4661
12.4726
12.4726
11.5999
11.4141
11.4564
11.529
11.6554
11.8942
12.3802
13.3028
14.2796
14.9094
15.267
15.4161
15.278
14.8806
14.3923
13.9119
13.4815
13.1148
12.8125
12.5693
12.3775
12.2287
12.1148
12.0289
11.965
11.9182
11.8847
11.8614
11.8459
11.8364
11.8315
11.83
11.8312
11.8344
11.8391
11.8448
11.8513
11.8583
11.8656
11.8732
11.8808
11.8885
11.8961
11.9035
11.9109
11.918
11.925
11.9317
11.9377
11.9377
10.841
10.6429
10.6947
10.786
10.944
11.2288
11.756
12.6464
13.606
14.302
14.7384
14.9413
14.8559
14.5066
14.029
13.5235
13.047
12.6269
12.2728
11.9838
11.7534
11.573
11.4336
11.3271
11.2465
11.1862
11.1416
11.1092
11.0861
11.0704
11.0602
11.0543
11.0518
11.0517
11.0536
11.0569
11.0613
11.0665
11.0722
11.0783
11.0846
11.0911
11.0976
11.104
11.1105
11.1168
11.123
11.1289
11.1343
11.1342
9.82701
9.60934
9.67158
9.78005
9.96406
10.2838
10.8377
11.6979
12.6216
13.3273
13.7798
13.9846
13.9064
13.573
13.0999
12.5858