# vtk DataFile Version 3.0
vtk output382
ASCII
DATASET STRUCTURED_GRID
DIMENSIONS 36 26 1
POINTS 936 float
0 0 0
0.171429 0 0
0.342857 0 0
0.514286 0 0
0.685714 0 0
0.857143 0 0
1.02857 0 0
1.2 0 0
1.37143 0 0
1.54286 0 0
1.71429 0 0
1.88571 0 0
2.05714 0 0
2.22857 0 0
2.4 0 0
2.57143 0 0
2.74286 0 0
2.91429 0 0
3.08571 0 0
3.25714 0 0
3.42857 0 0
3.6 0 0
3.77143 0 0
3.94286 0 0
4.11429 0 0
4.28571 0 0
4.45714 0 0
4.62857 0 0
4.8 0 0
4.97143 0 0
5.14286 0 0
5.31429 0 0
5.48571 0 0
5.65714 0 0
5.82857 0 0
6 0 0
0 0.2 0
0.171429 0.2 0
0.342857 0.2 0
0.514286 0.2 0
0.685714 0.2 0
0.857143 0.2 0
1.02857 0.2 0
1.2 0.2 0
1.37143 0.2 0
1.54286 0.2 0
1.71429 0.2 0
1.88571 0.2 0
2.05714 0.2 0
2.22857 0.2 0
2.4 0.2 0
2.57143 0.2 0
2.74286 0.2 0
2.91429 0.2 0
3.08571 0.2 0
3.25714 0.2 0
3.42857 0.2 0
3.6 0.2 0
3.77143 0.2 0
3.94286 0.2 0
4.11429 0.2 0
4.28571 0.2 0
4.45714 0.2 0
4.62857 0.2 0
4.8 0.2 0
4.97143 0.2 0
5.14286 0.2 0
5.31429 0.2 0
5.48571 0.2 0
5.65714 0.2 0
5.82857 0.2 0
6 0.2 0
0 0.4 0
0.171429 0.4 0
0.342857 0.4 0
0.514286 0.4 0
0.685714 0.4 0
0.857143 0.4 0
1.02857 0.4 0
1.2 0.4 0
1.37143 0.4 0
1.54286 0.4 0
1.71429 0.4 0
1.88571 0.4 0
2.05714 0.4 0
2.22857 0.4 0
2.4 0.4 0
2.57143 0.4 0
2.74286 0.4 0
2.91429 0.4 0
3.08571 0.4 0
3.25714 0.4 0
3.42857 0.4 0
3.6 0.4 0
3.77143 0.4 0
3.94286 0.4 0
4.11429 0.4 0
4.28571 0.4 0
4.45714 0.4 0
4.62857 0.4 0
4.8 0.4 0
4.97143 0.4 0
5.14286 0.4 0
5.31429 0.4 0
5.48571 0.4 0
5.65714 0.4 0
5.82857 0.4 0
6 0.4 0
0 0.6 0
0.171429 0.6 0
0.342857 0.6 0
0.514286 0.6 0
0.685714 0.6 0
0.857143 0.6 0
1.02857 0.6 0
1.2 0.6 0
1.37143 0.6 0
1.54286 0.6 0
1.71429 0.6 0
1.88571 0.6 0
2.05714 0.6 0
2.22857 0.6 0
2.4 0.6 0
2.57143 0.6 0
2.74286 0.6 0
2.91429 0.6 0
3.08571 0.6 0
3.25714 0.6 0
3.42857 0.6 0
3.6 0.6 0
3.77143 0.6 0
3.94286 0.6 0
4.11429 0.6 0
4.28571 0.6 0
4.45714 0.6 0
4.62857 0.6 0
4.8 0.6 0
4.97143 0.6 0
5.14286 0.6 0
5.31429 0.6 0
5.48571 0.6 0
5.65714 0.6 0
5.82857 0.6 0
6 0.6 0
0 0.8 0
0.171429 0.8 0
0.342857 0.8 0
0.514286 0.8 0
0.685714 0.8 0
0.857143 0.8 0
1.02857 0.8 0
1.2 0.8 0
1.37143 0.8 0
1.54286 0.8 0
1.71429 0.8 0
1.88571 0.8 0
2.05714 0.8 0
2.22857 0.8 0
2.4 0.8 0
2.57143 0.8 0
2.74286 0.8 0
2.91429 0.8 0
3.08571 0.8 0
3.25714 0.8 0
3.42857 0.8 0
3.6 0.8 0
3.77143 0.8 0
3.94286 0.8 0
4.11429 0.8 0
4.28571 0.8 0
4.45714 0.8 0
4.62857 0.8 0
4.8 0.8 0
4.97143 0.8 0
5.14286 0.8 0
5.31429 0.8 0
5.48571 0.8 0
5.65714 0.8 0
5.82857 0.8 0
6 0.8 0
0 1 0
0.171429 1 0
0.342857 1 0
0.514286 1 0
0.685714 1 0
0.857143 1 0
1.02857 1 0
1.2 1 0
1.37143 1 0
1.54286 1 0
1.71429 1 0
1.88571 1 0
2.05714 1 0
2.22857 1 0
2.4 1 0
2.57143 1 0
2.74286 1 0
2.91429 1 0
3.08571 1 0
3.25714 1 0
3.42857 1 0
3.6 1 0
3.77143 1 0
3.94286 1 0
4.11429 1 0
4.28571 1 0
4.45714 1 0
4.62857 1 0
4.8 1 0
4.97143 1 0
5.14286 1 0
5.31429 1 0
5.48571 1 0
5.65714 1 0
5.82857 1 0
6 1 0
0 1.2 0
0.171429 1.2 0
0.342857 1.2 0
0.514286 1.2 0
0.685714 1.2 0
0.857143 1.2 0
1.02857 1.2 0
1.2 1.2 0
1.37143 1.2 0
1.54286 1.2 0
1.71429 1.2 0
1.88571 1.2 0
2.05714 1.2 0
2.22857 1.2 0
2.4 1.2 0
2.57143 1.2 0
2.74286 1.2 0
2.91429 1.2 0
3.08571 1.2 0
3.25714 1.2 0
3.42857 1.2 0
3.6 1.2 0
3.77143 1.2 0
3.94286 1.2 0
4.11429 1.2 0
4.28571 1.2 0
4.45714 1.2 0
4.62857 1.2 0
4.8 1.2 0
4.97143 1.2 0
5.14286 1.2 0
5.31429 1.2 0
5.48571 1.2 0
5.65714 1.2 0
5.82857 1.2 0
6 1.2 0
0 1.4 0
0.171429 1.4 0
0.342857 1.4 0
0.514286 1.4 0
0.685714 1.4 0
0.857143 1.4 0
1.02857 1.4 0
1.2 1.4 0
1.37143 1.4 0
1.54286 1.4 0
1.71429 1.4 0
1.88571 1.4 0
2.05714 1.4 0
2.22857 1.4 0
2.4 1.4 0
2.57143 1.4 0
2.74286 1.4 0
2.91429 1.4 0
3.08571 1.4 0
3.25714 1.4 0
3.42857 1.4 0
3.6 1.4 0
3.77143 1.4 0
3.94286 1.4 0
4.11429 1.4 0
4.28571 1.4 0
4.45714 1.4 0
4.62857 1.4 0
4.8 1.4 0
4.97143 1.4 0
5.14286 1.4 0
5.31429 1.4 0
5.48571 1.4 0
5.65714 1.4 0
5.82857 1.4 0
6 1.4 0
0 1.6 0
0.171429 1.6 0
0.342857 1.6 0
0.514286 1.6 0
0.685714 1.6 0
0.857143 1.6 0
1.02857 1.6 0
1.2 1.6 0
1.37143 1.6 0
1.54286 1.6 0
1.71429 1.6 0
1.88571 1.6 0
2.05714 1.6 0
2.22857 1.6 0
2.4 1.6 0
2.57143 1.6 0
2.74286 1.6 0
2.91429 1.6 0
3.08571 1.6 0
3.25714 1.6 0
3.42857 1.6 0
3.6 1.6 0
3.77143 1.6 0
3.94286 1.6 0
4.11429 1.6 0
4.28571 1.6 0
4.45714 1.6 0
4.62857 1.6 0
4.8 1.6 0
4.97143 1.6 0
5.14286 1.6 0
5.31429 1.6 0
5.48571 1.6 0
5.65714 1.6 0
5.82857 1.6 0
6 1.6 0
0 1.8 0
0.171429 1.8 0
0.342857 1.8 0
0.514286 1.8 0
0.685714 1.8 0
0.857143 1.8 0
1.02857 1.8 0
1.2 1.8 0
1.37143 1.8 0
1.54286 1.8 0
1.71429 1.8 0
1.88571 1.8 0
2.05714 1.8 0
2.22857 1.8 0
2.4 1.8 0
2.57143 1.8 0
2.74286 1.8 0
2.91429 1.8 0
3.08571 1.8 0
3.25714 1.8 0
3.42857 1.8 0
3.6 1.8 0
3.77143 1.8 0
3.94286 1.8 0
4.11429 1.8 0
4.28571 1.8 0
4.45714 1.8 0
4.62857 1.8 0
4.8 1.8 0
4.97143 1.8 0
5.14286 1.8 0
5.31429 1.8 0
5.48571 1.8 0
5.65714 1.8 0
5.82857 1.8 0
6 1.8 0
0 2 0
0.171429 2 0
0.342857 2 0
0.514286 2 0
0.685714 2 0
0.857143 2 0
1.02857 2 0
1.2 2 0
1.37143 2 0
1.54286 2 0
1.71429 2 0
1.88571 2 0
2.05714 2 0
2.22857 2 0
2.4 2 0
2.57143 2 0
2.74286 2 0
2.91429 2 0
3.08571 2 0
3.25714 2 0
3.42857 2 0
3.6 2 0
3.77143 2 0
3.94286 2 0
4.11429 2 0
4.28571 2 0
4.45714 2 0
4.62857 2 0
4.8 2 0
4.97143 2 0
5.14286 2 0
5.31429 2 0
5.48571 2 0
5.65714 2 0
5.82857 2 0
6 2 0
0 2.2 0
0.171429 2.2 0
0.342857 2.2 0
0.514286 2.2 0
0.685714 2.2 0
0.857143 2.2 0
1.02857 2.2 0
1.2 2.2 0
1.37143 2.2 0
1.54286 2.2 0
1.71429 2.2 0
1.88571 2.2 0
2.05714 2.2 0
2.22857 2.2 0
2.4 2.2 0
2.57143 2.2 0
2.74286 2.2 0
2.91429 2.2 0
3.08571 2.2 0
3.25714 2.2 0
3.42857 2.2 0
3.6 2.2 0
3.77143 2.2 0
3.94286 2.2 0
4.11429 2.2 0
4.28571 2.2 0
4.45714 2.2 0
4.62857 2.2 0
4.8 2.2 0
4.97143 2.2 0
5.14286 2.2 0
5.31429 2.2 0
5.48571 2.2 0
5.65714 2.2 0
5.82857 2.2 0
6 2.2 0
0 2.4 0
0.171429 2.4 0
0.342857 2.4 0
0.514286 2.4 0
0.685714 2.4 0
0.857143 2.4 0
1.02857 2.4 0
1.2 2.4 0
1.37143 2.4 0
1.54286 2.4 0
1.71429 2.4 0
1.88571 2.4 0
2.05714 2.4 0
2.22857 2.4 0
2.4 2.4 0
2.57143 2.4 0
2.74286 2.4 0
2.91429 2.4 0
3.08571 2.4 0
3.25714 2.4 0
3.42857 2.4 0
3.6 2.4 0
3.77143 2.4 0
3.94286 2.4 0
4.11429 2.4 0
4.28571 2.4 0
4.45714 2.4 0
4.62857 2.4 0
4.8 2.4 0
4.97143 2.4 0
5.14286 2.4 0
5.31429 2.4 0
5.48571 2.4 0
5.65714 2.4 0
5.82857 2.4 0
6 2.4 0
0 2.6 0
0.171429 2.6 0
0.342857 2.6 0
0.514286 2.6 0
0.685714 2.6 0
0.857143 2.6 0
1.02857 2.6 0
1.2 2.6 0
1.37143 2.6 0
1.54286 2.6 0
1.71429 2.6 0
1.88571 2.6 0
2.05714 2.6 0
2.22857 2.6 0
2.4 2.6 0
2.57143 2.6 0
2.74286 2.6 0
2.91429 2.6 0
3.08571 2.6 0
3.25714 2.6 0
3.42857 2.6 0
3.6 2.6 0
3.77143 2.6 0
3.94286 2.6 0
4.11429 2.6 0
4.28571 2.6 0
4.45714 2.6 0
4.62857 2.6 0
4.8 2.6 0
4.97143 2.6 0
5.14286 2.6 0
5.31429 2.6 0
5.48571 2.6 0
5.65714 2.6 0
5.82857 2.6 0
6 2.6 0
0 2.8 0
0.171429 2.8 0
0.342857 2.8 0
0.514286 2.8 0
0.685714 2.8 0
0.857143 2.8 0
1.02857 2.8 0
1.2 2.8 0
1.37143 2.8 0
1.54286 2.8 0
1.71429 2.8 0
1.88571 2.8 0
2.05714 2.8 0
2.22857 2.8 0
2.4 2.8 0
2.57143 2.8 0
2.74286 2.8 0
2.91429 2.8 0
3.08571 2.8 0
3.25714 2.8 0
3.42857 2.8 0
3.6 2.8 0
3.77143 2.8 0
3.94286 2.8 0
4.11429 2.8 0
4.28571 2.8 0
4.45714 2.8 0
4.62857 2.8 0
4.8 2.8 0
4.97143 2.8 0
5.14286 2.8 0
5.31429 2.8 0
5.48571 2.8 0
5.65714 2.8 0
5.82857 2.8 0
6 2.8 0
0 3 0
0.171429 3 0
0.342857 3 0
0.514286 3 0
0.685714 3 0
0.857143 3 0
1.02857 3 0
1.2 3 0
1.37143 3 0
1.54286 3 0
1.71429 3 0
1.88571 3 0
2.05714 3 0
2.22857 3 0
2.4 3 0
2.57143 3 0
2.74286 3 0
2.91429 3 0
3.08571 3 0
3.25714 3 0
3.42857 3 0
3.6 3 0
3.77143 3 0
3.94286 3 0
4.11429 3 0
4.28571 3 0
4.45714 3 0
4.62857 3 0
4.8 3 0
4.97143 3 0
5.14286 3 0
5.31429 3 0
5.48571 3 0
5.65714 3 0
5.82857 3 0
6 3 0
0 3.2 0
0.171429 3.2 0
0.342857 3.2 0
0.514286 3.2 0
0.685714 3.2 0
0.857143 3.2 0
1.02857 3.2 0
1.2 3.2 0
1.37143 3.2 0
1.54286 3.2 0
1.71429 3.2 0
1.88571 3.2 0
2.05714 3.2 0
2.22857 3.2 0
2.4 3.2 0
2.57143 3.2 0
2.74286 3.2 0
2.91429 3.2 0
3.08571 3.2 0
3.25714 3.2 0
3.42857 3.2 0
3.6 3.2 0
3.77143 3.2 0
3.94286 3.2 0
4.11429 3.2 0
4.28571 3.2 0
4.45714 3.2 0
4.62857 3.2 0
4.8 3.2 0
4.97143 3.2 0
5.14286 3.2 0
5.31429 3.2 0
5.48571 3.2 0
5.65714 3.2 0
5.82857 3.2 0
6 3.2 0
0 3.4 0
0.171429 3.4 0
0.342857 3.4 0
0.514286 3.4 0
0.685714 3.4 0
0.857143 3.4 0
1.02857 3.4 0
1.2 3.4 0
1.37143 3.4 0
1.54286 3.4 0
1.71429 3.4 0
1.88571 3.4 0
2.05714 3.4 0
2.22857 3.4 0
2.4 3.4 0
2.57143 3.4 0
2.74286 3.4 0
2.91429 3.4 0
3.08571 3.4 0
3.25714 3.4 0
3.42857 3.4 0
3.6 3.4 0
3.77143 3.4 0
3.94286 3.4 0
4.11429 3.4 0
4.28571 3.4 0
4.45714 3.4 0
4.62857 3.4 0
4.8 3.4 0
4.97143 3.4 0
5.14286 3.4 0
5.31429 3.4 0
5.48571 3.4 0
5.65714 3.4 0
5.82857 3.4 0
6 3.4 0
0 3.6 0
0.171429 3.6 0
0.342857 3.6 0
0.514286 3.6 0
0.685714 3.6 0
0.857143 3.6 0
1.02857 3.6 0
1.2 3.6 0
1.37143 3.6 0
1.54286 3.6 0
1.71429 3.6 0
1.88571 3.6 0
2.05714 3.6 0
2.22857 3.6 0
2.4 3.6 0
2.57143 3.6 0
2.74286 3.6 0
2.91429 3.6 0
3.08571 3.6 0
3.25714 3.6 0
3.42857 3.6 0
3.6 3.6 0
3.77143 3.6 0
3.94286 3.6 0
4.11429 3.6 0
4.28571 3.6 0
4.45714 3.6 0
4.62857 3.6 0
4.8 3.6 0
4.97143 3.6 0
5.14286 3.6 0
5.31429 3.6 0
5.48571 3.6 0
5.65714 3.6 0
5.82857 3.6 0
6 3.6 0
0 3.8 0
0.171429 3.8 0
0.342857 3.8 0
0.514286 3.8 0
0.685714 3.8 0
0.857143 3.8 0
1.02857 3.8 0
1.2 3.8 0
1.37143 3.8 0
1.54286 3.8 0
1.71429 3.8 0
1.88571 3.8 0
2.05714 3.8 0
2.22857 3.8 0
2.4 3.8 0
2.57143 3.8 0
2.74286 3.8 0
2.91429 3.8 0
3.08571 3.8 0
3.25714 3.8 0
3.42857 3.8 0
3.6 3.8 0
3.77143 3.8 0
3.94286 3.8 0
4.11429 3.8 0
4.28571 3.8 0
4.45714 3.8 0
4.62857 3.8 0
4.8 3.8 0
4.97143 3.8 0
5.14286 3.8 0
5.31429 3.8 0
5.48571 3.8 0
5.65714 3.8 0
5.82857 3.8 0
6 3.8 0
0 4 0
0.171429 4 0
0.342857 4 0
0.514286 4 0
0.685714 4 0
0.857143 4 0
1.02857 4 0
1.2 4 0
1.37143 4 0
1.54286 4 0
1.71429 4 0
1.88571 4 0
2.05714 4 0
2.22857 4 0
2.4 4 0
2.57143 4 0
2.74286 4 0
2.91429 4 0
3.08571 4 0
3.25714 4 0
3.42857 4 0
3.6 4 0
3.77143 4 0
3.94286 4 0
4.11429 4 0
4.28571 4 0
4.45714 4 0
4.62857 4 0
4.8 4 0
4.97143 4 0
5.14286 4 0
5.31429 4 0
5.48571 4 0
5.65714 4 0
5.82857 4 0
6 4 0
0 4.2 0
0.171429 4.2 0
0.342857 4.2 0
0.514286 4.2 0
0.685714 4.2 0
0.857143 4.2 0
1.02857 4.2 0
1.2 4.2 0
1.37143 4.2 0
1.54286 4.2 0
1.71429 4.2 0
1.88571 4.2 0
2.05714 4.2 0
2.22857 4.2 0
2.4 4.2 0
2.57143 4.2 0
2.74286 4.2 0
2.91429 4.2 0
3.08571 4.2 0
3.25714 4.2 0
3.42857 4.2 0
3.6 4.2 0
3.77143 4.2 0
3.94286 4.2 0
4.11429 4.2 0
4.28571 4.2 0
4.45714 4.2 0
4.62857 4.2 0
4.8 4.2 0
4.97143 4.2 0
5.14286 4.2 0
5.31429 4.2 0
5.48571 4.2 0
5.65714 4.2 0
5.82857 4.2 0
6 4.2 0
0 4.4 0
0.171429 4.4 0
0.342857 4.4 0
0.514286 4.4 0
0.685714 4.4 0
0.857143 4.4 0
1.02857 4.4 0
1.2 4.4 0
1.37143 4.4 0
1.54286 4.4 0
1.71429 4.4 0
1.88571 4.4 0
2.05714 4.4 0
2.22857 4.4 0
2.4 4.4 0
2.57143 4.4 0
2.74286 4.4 0
2.91429 4.4 0
3.08571 4.4 0
3.25714 4.4 0
3.42857 4.4 0
3.6 4.4 0
3.77143 4.4 0
3.94286 4.4 0
4.11429 4.4 0
4.28571 4.4 0
4.45714 4.4 0
4.62857 4.4 0
4.8 4.4 0
4.97143 4.4 0
5.14286 4.4 0
5.31429 4.4 0
5.48571 4.4 0
5.65714 4.4 0
5.82857 4.4 0
6 4.4 0
0 4.6 0
0.171429 4.6 0
0.342857 4.6 0
0.514286 4.6 0
0.685714 4.6 0
0.857143 4.6 0
1.02857 4.6 0
1.2 4.6 0
1.37143 4.6 0
1.54286 4.6 0
1.71429 4.6 0
1.88571 4.6 0
2.05714 4.6 0
2.22857 4.6 0
2.4 4.6 0
2.57143 4.6 0
2.74286 4.6 0
2.91429 4.6 0
3.08571 4.6 0
3.25714 4.6 0
3.42857 4.6 0
3.6 4.6 0
3.77143 4.6 0
3.94286 4.6 0
4.11429 4.6 0
4.28571 4.6 0
4.45714 4.6 0
4.62857 4.6 0
4.8 4.6 0
4.97143 4.6 0
5.14286 4.6 0
5.31429 4.6 0
5.48571 4.6 0
5.65714 4.6 0
5.82857 4.6 0
6 4.6 0
0 4.8 0
0.171429 4.8 0
0.342857 4.8 0
0.514286 4.8 0
0.685714 4.8 0
0.857143 4.8 0
1.02857 4.8 0
1.2 4.8 0
1.37143 4.8 0
1.54286 4.8 0
1.71429 4.8 0
1.88571 4.8 0
2.05714 4.8 0
2.22857 4.8 0
2.4 4.8 0
2.57143 4.8 0
2.74286 4.8 0
2.91429 4.8 0
3.08571 4.8 0
3.25714 4.8 0
3.42857 4.8 0
3.6 4.8 0
3.77143 4.8 0
3.94286 4.8 0
4.11429 4.8 0
4.28571 4.8 0
4.45714 4.8 0
4.62857 4.8 0
4.8 4.8 0
4.97143 4.8 0
5.14286 4.8 0
5.31429 4.8 0
5.48571 4.8 0
5.65714 4.8 0
5.82857 4.8 0
6 4.8 0
0 5 0
0.171429 5 0
0.342857 5 0
0.514286 5 0
0.685714 5 0
0.857143 5 0
1.02857 5 0
1.2 5 0
1.37143 5 0
1.54286 5 0
1.71429 5 0
1.88571 5 0
2.05714 5 0
2.22857 5 0
2.4 5 0
2.57143 5 0
2.74286 5 0
2.91429 5 0
3.08571 5 0
3.25714 5 0
3.42857 5 0
3.6 5 0
3.77143 5 0
3.94286 5 0
4.11429 5 0
4.28571 5 0
4.45714 5 0
4.62857 5 0
4.8 5 0
4.97143 5 0
5.14286 5 0
5.31429 5 0
5.48571 5 0
5.65714 5 0
5.82857 5 0
6 5 0

CELL_DATA 875
SCALARS phi float
LOOKUP_TABLE default 
4.711
4.711
4.711
4.711
4.711
4.711
4.711
4.711
4.711
4.711
4.711
4.711
4.711
4.711
4.711
4.711
4.711
4.711
4.711
4.711
4.711
4.711
4.711
4.711
4.711
4.711
4.711
4.711
4.711
4.711
4.711
4.711
4.711
4.711
4.711
4.711
4.711
4.711
4.711
4.711
4.711
4.711
4.711
4.711
4.711
4.711
4.711
4.711
4.711
4.711
4.711
4.711
4.711
4.711
4.711
4.711
4.711
4.711
4.711
4.711
4.711
4.711
4.711
4.711
4.711
4.711
4.711
4.711
4.711
4.711
4.711
4.711
4.711
4.711
4.711
4.711
4.711
4.711
4.711
4.711
4.711
4.711
4.711
4.711
4.711
4.711
4.711
4.711
4.711
4.711
4.711
4.711
4.711
4.711
4.711
4.711
4.711
4.711
4.711
4.711
4.711
4.711
4.711
4.711
4.711
4.711
4.711
4.711
4.711
4.711
4.711
4.711
4.711
4.711
4.711
4.711
4.711
4.711
4.711
4.711
4.711
4.711
4.711
4.711
4.711
4.711
4.711
4.711
4.711
4.711
4.711
4.711
4.711
4.711
4.711
4.711
4.711
4.711
4.711
4.711
4.711
4.711
4.711
4.711
4.711
4.711
4.711
4.711
4.711
4.711
4.711
4.711
4.711
4.711
4.711
4.711
4.711
4.711
4.711
4.711
4.711
4.711
4.711
4.711
4.711
4.711
4.711
4.711
4.711
4.711
4.711
4.711
4.711
4.711
4.711
4.711
4.711
4.711
4.711
4.711
4.711
4.711
4.711
4.711
4.711
4.711
4.711
4.711
4.711
4.711
4.711
4.711
4.711
4.711
4.711
4.711
4.711
4.711
4.711
4.711
4.711
4.711
4.711
4.711
4.711
4.711
4.711
4.711
4.711
4.711
4.711
4.711
4.711
4.711
4.711
4.711
4.711
4.711
4.711
4.711
4.711
4.711
4.711
4.711
4.711
4.711
4.711
4.711
4.711
4.711
4.711
4.711
4.711
4.711
4.711
4.711
4.711
4.711
4.711
4.711
4.711
4.711
4.711
4.711
4.711
4.711
4.711
4.711
4.711
4.711
4.711
4.711
4.711
4.711
4.711
4.711
4.711
4.711
4.711
4.711
4.711
4.711
4.711
4.711
4.711
4.711
4.711
4.711
4.711
4.711
4.711
4.711
4.711
4.711
4.711
4.711
4.711
4.711
4.711
4.711
4.711
4.711
4.711
4.711
4.711
4.711
4.711
4.711
4.711
4.711
4.711
4.711
4.711
4.711
4.711
4.711
4.711
4.711
4.711
4.711
4.711
4.711
4.711
4.711
4.711
4.711
4.711
4.711
4.711
4.711
4.711
4.711
4.711
4.711
4.711
4.711
4.711
4.711
4.711
4.711
4.711
4.711
4.711
4.711
4.711
4.711
4.711
4.711
4.711
4.711
4.711
4.711
4.711
4.711
4.711
4.711
4.711
4.711
4.711
4.711
4.711
4.711
4.711
4.711
4.711
4.711
4.711
4.711
4.711
4.711
4.711
4.711
4.711
4.711
4.711
4.711
4.711
4.711
4.711
4.711
4.711
4.711
4.711
4.711
4.711
4.711
4.711
4.711
4.711
4.711
4.711
4.711
4.711
4.711
4.711
4.711
4.711
4.711
4.711
4.711
4.711
4.711
4.711
4.711
4.711
4.711
4.711
4.711
4.711
4.711
4.711
4.711
4.711
4.711
4.711
4.711
4.711
4.711
4.711
4.711
4.711
4.711
4.711
4.711
4.711
4.711
4.711
4.711
4.711
4.711
4.711
4.711
4.711
4.711
4.711
4.711
4.711
4.711
4.711
4.711
4.711
4.711
4.711
4.711
4.711
4.711
4.711
4.711
4.711
4.711
4.711
4.711
4.711
4.711
4.711
4.711
4.711
4.711
4.711
4.711
4.711
4.711
4.711
4.711
4.711
4.711
4.711
4.711
4.711
4.711
4.711
4.711
4.711
4.711
4.711
4.711
4.711
4.711
4.711
4.711
4.711
4.711
4.711
4.711
4.711
4.711
4.711
4.711
4.711
4.711
4.711
4.711
4.711
4.711
4.711
4.711
4.711
4.711
4.711
4.711
4.711
4.711
4.711
4.711
4.711
4.711
4.711
4.711
4.711
4.711
4.711
4.711
4.711
4.711
4.711
4.711
4.711
4.711
4.711
4.711
4.711
4.711
4.711
4.711
4.711
4.711
4.711
4.711
4.711
4.711
4.711
4.711
4.711
4.711
4.711
4.711
4.711
4.711
4.711
4.711
4.711
4.711
4.711
4.711
4.711
4.711
4.711
4.711
4.711
4.711
4.711
4.711
4.711
4.711
4.711
4.711
4.711
4.711
4.711
4.711
4.711
4.711
4.711
4.711
4.711
4.711
4.711
4.711
4.711
4.711
4.711
4.711
4.711
4.711
4.711
4.711
4.711
4.711
4.711
4.711
4.711
4.711
4.711
4.711
4.711
4.711
4.711
4.711
4.711
4.711
4.711
4.711
4.711
4.711
4.711
4.711
4.711
4.711
4.711
4.711
4.711
4.711
4.711
4.711
4.711
4.711
4.711
4.711
4.711
4.711
4.711
4.711
4.711
4.711
4.711
4.711
4.711
4.711
4.711
4.711
4.711
4.711
4.711
4.711
4.711
4.711
4.711
4.711
4.711
4.711
4.711
4.711
4.711
4.711
4.711
4.711
4.711
4.711
4.711
4.711
4.711
4.711
4.711
4.711
4.711
4.711
4.711
4.711
4.711
4.711
4.711
4.711
4.711
4.711
4.711
4.711
4.711
4.711
4.711
4.711
4.711
4.711
4.711
4.711
4.711
4.711
4.711
4.711
4.711
4.711
4.711
4.711
4.711
4.711
4.711
4.711
4.711
4.711
4.711
4.711
4.711
4.711
4.711
4.711
4.711
4.711
4.711
4.711
4.711
4.711
4.711
4.711
4.711
4.711
4.711
4.711
4.711
4.711
4.711
4.711
4.711
4.711
4.711
4.711
4.711
4.711
4.711
4.711
4.711
4.711
4.711
4.711
4.711
4.711
4.711
4.711
4.711
4.711
4.711
4.711
4.711
4.711
4.711
4.711
4.711
4.711
4.711
4.711
4.711
4.711
4.711
4.711
4.711
4.711
4.711
4.711
4.711
4.711
4.711
4.711
4.711
4.711
4.711
4.711
4.711
4.711
4.711
4.711
4.711
4.711
4.711
4.711
4.711
4.711
4.711
4.711
4.711
4.711
4.711
4.711
4.711
4.711
4.711
4.711
4.711
4.711
4.711
4.711
4.711
4.711
4.711
4.711
4.711
4.711
4.711
4.711
4.711
4.711
4.711
4.711
4.711
4.711
4.711
4.711
4.711
4.711
4.711
4.711
4.711
4.711
4.711
4.711
4.711
4.711
4.711
4.711
4.711
4.711
4.711
4.711
4.711
4.711
4.711
4.711
4.711
4.711
4.711
4.711
4.711
4.711
4.711
4.711
4.711
4.711
4.711
4.711
4.711
4.711
4.711
4.711
4.711
4.711
4.711
4.711
4.711
4.711
4.711
4.711
4.711
4.711
4.711
4.711
4.711
4.711
4.711
4.711
4.711
4.711
4.711
4.711
4.711
4.711
4.711
4.711
4.711
4.711
4.711
4.711
4.711
4.711
4.711
4.711
4.711
4.711
4.711
4.711
4.711
4.711
4.711
4.711
4.711
4.711
4.711
4.711
4.711
4.711
4.711
4.711
4.711
4.711
4.711
4.711
4.711
4.711
4.711
4.711
4.711
4.711
4.711
4.711
4.711
4.711
4.711
4.711
4.711
4.711
4.711
4.711
4.711
4.711
4.711
4.711
4.711
4.711
4.711

SCALARS p float
LOOKUP_TABLE default 
20.3287
20.3287
20.1866
20.1398
20.1617
20.1617
0
0
0
-139.897
-139.897
-141.79
-144.364
-146.576
-147.423
-146.006
-141.043
-132.252
-120.248
-106.149
-91.1655
-76.3351
-62.4082
-49.8421
-38.8439
-29.4323
-21.505
-14.8931
-9.38473
-4.76246
-0.818685
2.57457
5.44768
7.92978
10
20.3287
20.3287
20.1866
20.1398
20.1617
20.1617
0
0
0
-139.897
-139.897
-141.79
-144.364
-146.576
-147.423
-146.006
-141.043
-132.252
-120.248
-106.149
-91.1655
-76.3351
-62.4082
-49.8421
-38.8439
-29.4323
-21.505
-14.8931
-9.38473
-4.76246
-0.818685
2.57457
5.44768
7.92978
10
19.9729
19.9729
19.8823
19.9179
20.036
20.036
0
0
0
-142.448
-142.448
-144.702
-147.871
-151.114
-153.158
-152.805
-147.655
-137.848
-124.497
-109.12
-93.128
-77.6005
-63.2457
-50.447
-39.3387
-29.8758
-21.9139
-15.2743
-9.73917
-4.92551
-0.915378
2.47951
5.38325
7.91249
10
18.9672
18.9672
18.9132
19.0447
19.2915
19.2915
0
0
0
-146.199
-146.199
-148.958
-152.938
-157.201
-160.172
-160.113
-154.712
-143.779
-129.049
-112.418
-95.4557
-79.2558
-64.4784
-51.4383
-40.2148
-30.7004
-22.688
-15.8494
-10.1385
-5.32897
-1.27235
2.18252
5.16418
7.78866
10
16.9378
16.9378
16.8881
17.0741
17.4249
17.4249
0
0
0
-148.364
-148.364
-151.364
-155.782
-160.726
-164.586
-164.876
-159.134
-147.432
-131.846
-114.475
-96.9725
-80.4153
-65.4283
-52.2733
-40.9503
-31.3445
-23.2621
-16.4491
-10.7177
-5.87477
-1.75736
1.77885
4.8593
7.59916
10
13.5458
13.5458
13.4206
13.5063
13.8128
13.8128
0
0
0
-147.832
-147.832
-150.609
-155.032
-160.085
-164.285
-164.624
-158.48
-146.692
-131.108
-113.813
-96.4512
-80.0926
-65.3219
-52.3671
-41.2216
-31.7498
-23.7473
-16.989
-11.2701
-6.40488
-2.23377
1.38055
4.55732
7.40758
10
8.64216
8.64216
8.25413
7.79779
7.46105
7.46105
0
0
0
-145.782
-145.782
-148.056
-152.163
-157.055
-160.789
-158.721
-151.798
-140.317
-125.69
-109.581
-93.3733
-78.0128
-64.0416
-51.6916
-40.9836
-31.8116
-24.0009
-17.3562
-11.6883
-6.82606
-2.62117
1.05367
4.30909
7.24873
10
2.48878
2.48878
1.52689
-0.473014
-4.01628
-4.01628
-59.0975
-77.947
-96.1544
-146.742
-146.742
-144.999
-147.696
-150.605
-151.022
-147.795
-140.73
-130.243
-117.308
-103.093
-88.6504
-74.7702
-61.9541
-50.4575
-40.3511
-31.5839
-24.0314
-17.5397
-11.9493
-7.11094
-2.89233
0.82183
4.13244
7.13403
10
-4.02077
-4.02077
-5.6478
-9.76868
-19.4741
-44.8737
-59.0975
-77.947
-96.1544
-136.811
-134.892
-136.112
-138.406
-139.82
-138.854
-135.311
-128.853
-119.736
-108.618
-96.3278
-83.6686
-71.2946
-59.665
-49.0509
-39.5682
-31.2199
-23.9333
-17.5984
-12.0894
-7.28179
-3.06067
0.676785
4.02199
7.0605
10
-9.64602
-9.64602
-11.3912
-15.6257
-24.0486
-39.0752
-59.0975
-77.947
-96.1544
-109.774
-117.881
-123.346
-127.024
-128.702
-127.906
-124.69
-118.986
-111.052
-101.394
-90.6394
-79.4241
-68.295
-57.6658
-47.8078
-38.8643
-30.8785
-23.8196
-17.6156
-12.1717
-7.38705
-3.1634
0.590529
3.95793
7.01677
10
-13.7156
-13.7156
-15.2467
-18.815
-25.2784
-35.611
-49.7064
-65.1973
-80.5824
-94.2428
-104.773
-112.385
-117.371
-119.781
-119.562
-116.874
-111.857
-104.814
-96.1937
-86.5235
-76.338
-66.1113
-56.2194
-46.9257
-38.3869
-30.6714
-23.7778
-17.6629
-12.2571
-7.47909
-3.24497
0.526916
3.91345
6.9872
10
-16.0759
-16.0759
-17.3555
-20.2889
-25.4134
-33.3991
-44.5383
-57.852
-71.9446
-85.3081
-96.5944
-105.226
-111.056
-114.083
-114.378
-112.138
-107.612
-101.142
-93.16
-84.1471
-74.5853
-64.9073
-55.4651
-46.5152
-38.2203
-30.6631
-23.8601
-17.7864
-12.3888
-7.59971
-3.34509
0.450184
3.85946
6.95331
10
-16.7942
-16.7942
-17.9034
-20.4559
-24.9148
-31.9518
-42.0664
-54.6894
-68.504
-81.9336
-93.5679
-102.624
-108.818
-112.117
-112.627
-110.579
-106.261
-100.027
-92.3015
-83.5447
-74.219
-64.7415
-55.4559
-46.6176
-38.3935
-30.8731
-24.0812
-18.0008
-12.5854
-7.77234
-3.49121
0.331022
3.76714
6.89057
10
-16.0759
-16.0759
-17.3555
-20.2889
-25.4134
-33.3991
-44.5383
-57.852
-71.9446
-85.3081
-96.5944
-105.226
-111.056
-114.083
-114.378
-112.138
-107.612
-101.142
-93.16
-84.1471
-74.5853
-64.9073
-55.4651
-46.5152
-38.2203
-30.6631
-23.8601
-17.7864
-12.3888
-7.59971
-3.34509
0.450184
3.85946
6.95331
10
-13.7156
-13.7156
-15.2467
-18.815
-25.2784
-35.611
-49.7064
-65.1973
-80.5824
-94.2428
-104.773
-112.385
-117.371
-119.781
-119.562
-116.874
-111.857
-104.814
-96.1937
-86.5235
-76.338
-66.1113
-56.2194
-46.9257
-38.3869
-30.6714
-23.7778
-17.6629
-12.2571
-7.47909
-3.24497
0.526916
3.91345
6.9872
10
-9.64602
-9.64602
-11.3912
-15.6257
-24.0486
-39.0752
-59.0975
-77.947
-96.1544
-109.774
-117.881
-123.346
-127.024
-128.702
-127.906
-124.69
-118.986
-111.052
-101.394
-90.6394
-79.4241
-68.295
-57.6658
-47.8078
-38.8643
-30.8785
-23.8196
-17.6156
-12.1717
-7.38705
-3.1634
0.590529
3.95793
7.01677
10
-4.02077
-4.02077
-5.6478
-9.76868
-19.4741
-44.8737
-59.0975
-77.947
-96.1544
-136.811
-134.892
-136.112
-138.406
-139.82
-138.854
-135.311
-128.853
-119.736
-108.618
-96.3278
-83.6686
-71.2946
-59.665
-49.0509
-39.5682
-31.2199
-23.9333
-17.5984
-12.0894
-7.28179
-3.06067
0.676785
4.02199
7.0605
10
2.48878
2.48878
1.52689
-0.473014
-4.01629
-4.01629
-59.0975
-77.947
-96.1544
-146.742
-146.742
-144.999
-147.696
-150.605
-151.021
-147.795
-140.73
-130.243
-117.308
-103.093
-88.6504
-74.7702
-61.9541
-50.4575
-40.3511
-31.5839
-24.0314
-17.5397
-11.9493
-7.11093
-2.89233
0.82183
4.13244
7.13403
10
8.64216
8.64216
8.25413
7.79779
7.46105
7.46105
0
0
0
-145.782
-145.782
-148.056
-152.163
-157.055
-160.789
-158.721
-151.798
-140.317
-125.69
-109.581
-93.3733
-78.0128
-64.0416
-51.6916
-40.9836
-31.8116
-24.0009
-17.3562
-11.6883
-6.82606
-2.62117
1.05367
4.30909
7.24873
10
13.5458
13.5458
13.4206
13.5063
13.8128
13.8128
0
0
0
-147.832
-147.832
-150.609
-155.032
-160.085
-164.285
-164.624
-158.48
-146.692
-131.108
-113.813
-96.4512
-80.0926
-65.3219
-52.3671
-41.2216
-31.7498
-23.7472
-16.989
-11.2701
-6.40488
-2.23377
1.38055
4.55732
7.40758
10
16.9378
16.9378
16.8881
17.0741
17.4249
17.4249
0
0
0
-148.364
-148.364
-151.364
-155.782
-160.726
-164.586
-164.876
-159.134
-147.432
-131.846
-114.475
-96.9724
-80.4153
-65.4282
-52.2733
-40.9503
-31.3445
-23.2621
-16.4491
-10.7177
-5.87477
-1.75736
1.77885
4.8593
7.59916
10
18.9672
18.9672
18.9132
19.0447
19.2915
19.2915
0
0
0
-146.199
-146.199
-148.958
-152.938
-157.201
-160.172
-160.113
-154.712
-143.779
-129.049
-112.418
-95.4557
-79.2558
-64.4784
-51.4383
-40.2148
-30.7004
-22.688
-15.8494
-10.1385
-5.32897
-1.27235
2.18253
5.16418
7.78866
10
19.9729
19.9729
19.8823
19.9179
20.036
20.036
0
0
0
-142.448
-142.448
-144.702
-147.871
-151.114
-153.158
-152.805
-147.655
-137.848
-124.497
-109.12
-93.128
-77.6005
-63.2457
-50.447
-39.3387
-29.8758
-21.9139
-15.2743
-9.73917
-4.92551
-0.915378
2.47951
5.38325
7.91249
10
20.3287
20.3287
20.1866
20.1398
20.1617
20.1617
0
0
0
-139.897
-139.897
-141.79
-144.364
-146.576
-147.423
-146.006
-141.043
-132.252
-120.248
-106.149
-91.1655
-76.3351
-62.4082
-49.8421
-38.8439
-29.4323
-21.505
-14.8931
-9.38473
-4.76246
-0.818685
2.57457
5.44768
7.92978
10
20.3287
20.3287
20.1866
20.1398
20.1617
20.1617
0
0
0
-139.897
-139.897
-141.79
-144.364
-146.576
-147.423
-146.006
-141.043
-132.252
-120.248
-106.149
-91.1655
-76.3351
-62.4082
-49.8421
-38.8439
-29.4323
-21.505
-14.8931
-9.38473
-4.76246
-0.818685
2.57457
5.44768
7.92978
10

SCALARS  u float
LOOKUP_TABLE default 
0.00966667
0.00653601
0.00685345
0.00780527
0.0117588
0.0271046
0
0
0
0.0766214
0.0741935
0.0732925
0.0722295
0.066251
-0.00249097
-0.0577449
-0.0645903
-0.0658561
-0.0646205
-0.0613033
-0.056372
-0.0504057
-0.0438903
-0.0371915
-0.0305832
-0.0242718
-0.0184157
-0.0131323
-0.00847651
-0.00446974
-0.0010197
0.00181941
0.00409278
0.00582673
0.00582673
0.0364685
0.0346201
0.0326188
0.0309076
0.0347958
0.0606959
0
0
0
0.14085
0.114164
0.0978307
0.0817939
0.0605756
-0.0347672
-0.18804
-0.227234
-0.235492
-0.232297
-0.220963
-0.203207
-0.181482
-0.157636
-0.13298
-0.108459
-0.0847834
-0.0625083
-0.042083
-0.0237541
-0.00765975
0.00603913
0.0175727
0.0271161
0.0348076
0.0364211
0.0592519
0.0568767
0.0529701
0.048398
0.0486468
0.0687348
0
0
0
0.144845
0.121837
0.111123
0.100854
0.0892519
0.062769
-0.0465687
-0.116835
-0.167674
-0.179697
-0.178731
-0.16585
-0.147167
-0.125849
-0.103619
-0.0813757
-0.0596474
-0.0387741
-0.0189375
-0.000491065
0.0162083
0.0310524
0.0442635
0.0558179
0.0655333
0.0677606
0.079549
0.0764336
0.0707748
0.0634454
0.0599627
0.0732896
0
0
0
0.150573
0.135808
0.133677
0.13165
0.128362
0.120642
0.0991225
0.0469803
-0.0171373
-0.0615498
-0.0960832
-0.0988928
-0.088956
-0.0737282
-0.0568127
-0.039561
-0.0225508
-0.00609228
0.00949847
0.0241744
0.0377845
0.0504634
0.0620912
0.0725623
0.0816084
0.0837179
0.0976749
0.0941498
0.0873719
0.0778742
0.0709059
0.0765492
0
0
0
0.156786
0.151597
0.158524
0.165544
0.170951
0.171746
0.165466
0.149069
0.118602
0.0690524
0.0152228
-0.011933
-0.017584
-0.0115657
-0.001832
0.00910594
0.0202842
0.0312409
0.0416269
0.051563
0.0610363
0.0700241
0.0784581
0.086227
0.0930495
0.0946101
0.113693
0.110305
0.103541
0.0930932
0.0829701
0.0792851
0
0
0
0.161998
0.166334
0.181304
0.196279
0.209613
0.218596
0.21995
0.210776
0.189857
0.157863
0.117955
0.0821823
0.0635158
0.0582242
0.0590271
0.0625447
0.0672303
0.0723088
0.0774319
0.0824586
0.0873482
0.0921038
0.0967123
0.101103
0.105038
0.105893
0.12763
0.125192
0.120381
0.111659
0.0997335
0.091636
0
0
0
0.162551
0.184364
0.20417
0.225016
0.244508
0.260258
0.267146
0.261731
0.24543
0.221238
0.192826
0.165239
0.143815
0.130154
0.122356
0.118205
0.116207
0.115416
0.115258
0.115409
0.115729
0.116195
0.11683
0.117625
0.118445
0.11857
0.139501
0.138997
0.138962
0.137704
0.13372
0.183694
0.188568
0.209759
0.251407
0.349691
0.338383
0.332259
0.33405
0.337879
0.338371
0.332837
0.320865
0.30314
0.281354
0.257644
0.234283
0.21332
0.195965
0.182359
0.171963
0.164022
0.157809
0.152726
0.148345
0.144415
0.140852
0.13768
0.134954
0.132676
0.132112
0.149283
0.151129
0.157501
0.16874
0.188288
0.228104
0.261644
0.290162
0.339926
0.378832
0.376234
0.37763
0.381302
0.383737
0.382587
0.376747
0.365863
0.350489
0.33177
0.311108
0.289908
0.269405
0.250527
0.233803
0.219378
0.207084
0.196558
0.18737
0.179116
0.171504
0.164402
0.157825
0.15188
0.146718
0.145543
0.156902
0.160235
0.170577
0.189018
0.218204
0.257235
0.294079
0.326374
0.361233
0.387878
0.399041
0.406998
0.412739
0.415552
0.414587
0.409448
0.400038
0.386752
0.370349
0.351787
0.332069
0.312135
0.292774
0.274577
0.257898
0.24285
0.229328
0.217084
0.205812
0.195244
0.185239
0.175815
0.167123
0.159453
0.157763
0.162326
0.166059
0.177302
0.197282
0.227232
0.265611
0.304951
0.340584
0.372374
0.397793
0.415493
0.427791
0.435776
0.439686
0.43941
0.434889
0.426314
0.414106
0.398894
0.381436
0.362542
0.342992
0.323485
0.304587
0.2867
0.270037
0.25462
0.240316
0.226903
0.21416
0.201961
0.190339
0.179487
0.169809
0.167706
0.165564
0.169108
0.179587
0.198182
0.225696
0.261153
0.300095
0.33781
0.37157
0.399483
0.420867
0.436277
0.44636
0.451561
0.452167
0.448408
0.440643
0.429335
0.415069
0.398514
0.38038
0.361363
0.342099
0.323123
0.304837
0.287483
0.271132
0.25571
0.241046
0.226956
0.213338
0.200248
0.187916
0.176828
0.174423
0.166636
0.16996
0.179707
0.197004
0.222642
0.25611
0.294145
0.332326
0.367219
0.39662
0.419651
0.436475
0.447589
0.453481
0.454587
0.451292
0.444014
0.433231
0.419511
0.40349
0.385844
0.367236
0.348277
0.329487
0.31126
0.293839
0.277307
0.261597
0.246551
0.231994
0.217838
0.204155
0.191201
0.179486
0.17691
0.165564
0.169108
0.179587
0.198182
0.225696
0.261153
0.300095
0.33781
0.37157
0.399483
0.420867
0.436277
0.44636
0.451561
0.452167
0.448408
0.440643
0.429335
0.415069
0.398514
0.38038
0.361363
0.342099
0.323123
0.304837
0.287483
0.271132
0.25571
0.241046
0.226956
0.213338
0.200248
0.187916
0.176828
0.174423
0.162326
0.166059
0.177302
0.197282
0.227232
0.265611
0.304951
0.340584
0.372374
0.397793
0.415493
0.427791
0.435776
0.439686
0.43941
0.434889
0.426314
0.414106
0.398894
0.381436
0.362542
0.342992
0.323485
0.304587
0.2867
0.270037
0.25462
0.240316
0.226903
0.21416
0.201961
0.190339
0.179487
0.169809
0.167706
0.156902
0.160235
0.170577
0.189018
0.218204
0.257235
0.294079
0.326374
0.361233
0.387878
0.399041
0.406998
0.412739
0.415552
0.414587
0.409448
0.400038
0.386752
0.370349
0.351787
0.332069
0.312135
0.292774
0.274577
0.257898
0.24285
0.229328
0.217084
0.205812
0.195244
0.185239
0.175815
0.167123
0.159453
0.157763
0.149283
0.151129
0.157501
0.16874
0.188288
0.228104
0.261644
0.290162
0.339926
0.378832
0.376234
0.37763
0.381302
0.383737
0.382587
0.376747
0.365863
0.350489
0.33177