# vtk DataFile Version 3.0
vtk output185
ASCII
DATASET STRUCTURED_GRID
DIMENSIONS 51 21 1
POINTS 1071 float
0 0 0
0.2 0 0
0.4 0 0
0.6 0 0
0.8 0 0
1 0 0
1.2 0 0
1.4 0 0
1.6 0 0
1.8 0 0
2 0 0
2.2 0 0
2.4 0 0
2.6 0 0
2.8 0 0
3 0 0
3.2 0 0
3.4 0 0
3.6 0 0
3.8 0 0
4 0 0
4.2 0 0
4.4 0 0
4.6 0 0
4.8 0 0
5 0 0
5.2 0 0
5.4 0 0
5.6 0 0
5.8 0 0
6 0 0
6.2 0 0
6.4 0 0
6.6 0 0
6.8 0 0
7 0 0
7.2 0 0
7.4 0 0
7.6 0 0
7.8 0 0
8 0 0
8.2 0 0
8.4 0 0
8.6 0 0
8.8 0 0
9 0 0
9.2 0 0
9.4 0 0
9.6 0 0
9.8 0 0
10 0 0
0 0.05 0
0.2 0.05 0
0.4 0.05 0
0.6 0.05 0
0.8 0.05 0
1 0.05 0
1.2 0.05 0
1.4 0.05 0
1.6 0.05 0
1.8 0.05 0
2 0.05 0
2.2 0.05 0
2.4 0.05 0
2.6 0.05 0
2.8 0.05 0
3 0.05 0
3.2 0.05 0
3.4 0.05 0
3.6 0.05 0
3.8 0.05 0
4 0.05 0
4.2 0.05 0
4.4 0.05 0
4.6 0.05 0
4.8 0.05 0
5 0.05 0
5.2 0.05 0
5.4 0.05 0
5.6 0.05 0
5.8 0.05 0
6 0.05 0
6.2 0.05 0
6.4 0.05 0
6.6 0.05 0
6.8 0.05 0
7 0.05 0
7.2 0.05 0
7.4 0.05 0
7.6 0.05 0
7.8 0.05 0
8 0.05 0
8.2 0.05 0
8.4 0.05 0
8.6 0.05 0
8.8 0.05 0
9 0.05 0
9.2 0.05 0
9.4 0.05 0
9.6 0.05 0
9.8 0.05 0
10 0.05 0
0 0.1 0
0.2 0.1 0
0.4 0.1 0
0.6 0.1 0
0.8 0.1 0
1 0.1 0
1.2 0.1 0
1.4 0.1 0
1.6 0.1 0
1.8 0.1 0
2 0.1 0
2.2 0.1 0
2.4 0.1 0
2.6 0.1 0
2.8 0.1 0
3 0.1 0
3.2 0.1 0
3.4 0.1 0
3.6 0.1 0
3.8 0.1 0
4 0.1 0
4.2 0.1 0
4.4 0.1 0
4.6 0.1 0
4.8 0.1 0
5 0.1 0
5.2 0.1 0
5.4 0.1 0
5.6 0.1 0
5.8 0.1 0
6 0.1 0
6.2 0.1 0
6.4 0.1 0
6.6 0.1 0
6.8 0.1 0
7 0.1 0
7.2 0.1 0
7.4 0.1 0
7.6 0.1 0
7.8 0.1 0
8 0.1 0
8.2 0.1 0
8.4 0.1 0
8.6 0.1 0
8.8 0.1 0
9 0.1 0
9.2 0.1 0
9.4 0.1 0
9.6 0.1 0
9.8 0.1 0
10 0.1 0
0 0.15 0
0.2 0.15 0
0.4 0.15 0
0.6 0.15 0
0.8 0.15 0
1 0.15 0
1.2 0.15 0
1.4 0.15 0
1.6 0.15 0
1.8 0.15 0
2 0.15 0
2.2 0.15 0
2.4 0.15 0
2.6 0.15 0
2.8 0.15 0
3 0.15 0
3.2 0.15 0
3.4 0.15 0
3.6 0.15 0
3.8 0.15 0
4 0.15 0
4.2 0.15 0
4.4 0.15 0
4.6 0.15 0
4.8 0.15 0
5 0.15 0
5.2 0.15 0
5.4 0.15 0
5.6 0.15 0
5.8 0.15 0
6 0.15 0
6.2 0.15 0
6.4 0.15 0
6.6 0.15 0
6.8 0.15 0
7 0.15 0
7.2 0.15 0
7.4 0.15 0
7.6 0.15 0
7.8 0.15 0
8 0.15 0
8.2 0.15 0
8.4 0.15 0
8.6 0.15 0
8.8 0.15 0
9 0.15 0
9.2 0.15 0
9.4 0.15 0
9.6 0.15 0
9.8 0.15 0
10 0.15 0
0 0.2 0
0.2 0.2 0
0.4 0.2 0
0.6 0.2 0
0.8 0.2 0
1 0.2 0
1.2 0.2 0
1.4 0.2 0
1.6 0.2 0
1.8 0.2 0
2 0.2 0
2.2 0.2 0
2.4 0.2 0
2.6 0.2 0
2.8 0.2 0
3 0.2 0
3.2 0.2 0
3.4 0.2 0
3.6 0.2 0
3.8 0.2 0
4 0.2 0
4.2 0.2 0
4.4 0.2 0
4.6 0.2 0
4.8 0.2 0
5 0.2 0
5.2 0.2 0
5.4 0.2 0
5.6 0.2 0
5.8 0.2 0
6 0.2 0
6.2 0.2 0
6.4 0.2 0
6.6 0.2 0
6.8 0.2 0
7 0.2 0
7.2 0.2 0
7.4 0.2 0
7.6 0.2 0
7.8 0.2 0
8 0.2 0
8.2 0.2 0
8.4 0.2 0
8.6 0.2 0
8.8 0.2 0
9 0.2 0
9.2 0.2 0
9.4 0.2 0
9.6 0.2 0
9.8 0.2 0
10 0.2 0
0 0.25 0
0.2 0.25 0
0.4 0.25 0
0.6 0.25 0
0.8 0.25 0
1 0.25 0
1.2 0.25 0
1.4 0.25 0
1.6 0.25 0
1.8 0.25 0
2 0.25 0
2.2 0.25 0
2.4 0.25 0
2.6 0.25 0
2.8 0.25 0
3 0.25 0
3.2 0.25 0
3.4 0.25 0
3.6 0.25 0
3.8 0.25 0
4 0.25 0
4.2 0.25 0
4.4 0.25 0
4.6 0.25 0
4.8 0.25 0
5 0.25 0
5.2 0.25 0
5.4 0.25 0
5.6 0.25 0
5.8 0.25 0
6 0.25 0
6.2 0.25 0
6.4 0.25 0
6.6 0.25 0
6.8 0.25 0
7 0.25 0
7.2 0.25 0
7.4 0.25 0
7.6 0.25 0
7.8 0.25 0
8 0.25 0
8.2 0.25 0
8.4 0.25 0
8.6 0.25 0
8.8 0.25 0
9 0.25 0
9.2 0.25 0
9.4 0.25 0
9.6 0.25 0
9.8 0.25 0
10 0.25 0
0 0.3 0
0.2 0.3 0
0.4 0.3 0
0.6 0.3 0
0.8 0.3 0
1 0.3 0
1.2 0.3 0
1.4 0.3 0
1.6 0.3 0
1.8 0.3 0
2 0.3 0
2.2 0.3 0
2.4 0.3 0
2.6 0.3 0
2.8 0.3 0
3 0.3 0
3.2 0.3 0
3.4 0.3 0
3.6 0.3 0
3.8 0.3 0
4 0.3 0
4.2 0.3 0
4.4 0.3 0
4.6 0.3 0
4.8 0.3 0
5 0.3 0
5.2 0.3 0
5.4 0.3 0
5.6 0.3 0
5.8 0.3 0
6 0.3 0
6.2 0.3 0
6.4 0.3 0
6.6 0.3 0
6.8 0.3 0
7 0.3 0
7.2 0.3 0
7.4 0.3 0
7.6 0.3 0
7.8 0.3 0
8 0.3 0
8.2 0.3 0
8.4 0.3 0
8.6 0.3 0
8.8 0.3 0
9 0.3 0
9.2 0.3 0
9.4 0.3 0
9.6 0.3 0
9.8 0.3 0
10 0.3 0
0 0.35 0
0.2 0.35 0
0.4 0.35 0
0.6 0.35 0
0.8 0.35 0
1 0.35 0
1.2 0.35 0
1.4 0.35 0
1.6 0.35 0
1.8 0.35 0
2 0.35 0
2.2 0.35 0
2.4 0.35 0
2.6 0.35 0
2.8 0.35 0
3 0.35 0
3.2 0.35 0
3.4 0.35 0
3.6 0.35 0
3.8 0.35 0
4 0.35 0
4.2 0.35 0
4.4 0.35 0
4.6 0.35 0
4.8 0.35 0
5 0.35 0
5.2 0.35 0
5.4 0.35 0
5.6 0.35 0
5.8 0.35 0
6 0.35 0
6.2 0.35 0
6.4 0.35 0
6.6 0.35 0
6.8 0.35 0
7 0.35 0
7.2 0.35 0
7.4 0.35 0
7.6 0.35 0
7.8 0.35 0
8 0.35 0
8.2 0.35 0
8.4 0.35 0
8.6 0.35 0
8.8 0.35 0
9 0.35 0
9.2 0.35 0
9.4 0.35 0
9.6 0.35 0
9.8 0.35 0
10 0.35 0
0 0.4 0
0.2 0.4 0
0.4 0.4 0
0.6 0.4 0
0.8 0.4 0
1 0.4 0
1.2 0.4 0
1.4 0.4 0
1.6 0.4 0
1.8 0.4 0
2 0.4 0
2.2 0.4 0
2.4 0.4 0
2.6 0.4 0
2.8 0.4 0
3 0.4 0
3.2 0.4 0
3.4 0.4 0
3.6 0.4 0
3.8 0.4 0
4 0.4 0
4.2 0.4 0
4.4 0.4 0
4.6 0.4 0
4.8 0.4 0
5 0.4 0
5.2 0.4 0
5.4 0.4 0
5.6 0.4 0
5.8 0.4 0
6 0.4 0
6.2 0.4 0
6.4 0.4 0
6.6 0.4 0
6.8 0.4 0
7 0.4 0
7.2 0.4 0
7.4 0.4 0
7.6 0.4 0
7.8 0.4 0
8 0.4 0
8.2 0.4 0
8.4 0.4 0
8.6 0.4 0
8.8 0.4 0
9 0.4 0
9.2 0.4 0
9.4 0.4 0
9.6 0.4 0
9.8 0.4 0
10 0.4 0
0 0.45 0
0.2 0.45 0
0.4 0.45 0
0.6 0.45 0
0.8 0.45 0
1 0.45 0
1.2 0.45 0
1.4 0.45 0
1.6 0.45 0
1.8 0.45 0
2 0.45 0
2.2 0.45 0
2.4 0.45 0
2.6 0.45 0
2.8 0.45 0
3 0.45 0
3.2 0.45 0
3.4 0.45 0
3.6 0.45 0
3.8 0.45 0
4 0.45 0
4.2 0.45 0
4.4 0.45 0
4.6 0.45 0
4.8 0.45 0
5 0.45 0
5.2 0.45 0
5.4 0.45 0
5.6 0.45 0
5.8 0.45 0
6 0.45 0
6.2 0.45 0
6.4 0.45 0
6.6 0.45 0
6.8 0.45 0
7 0.45 0
7.2 0.45 0
7.4 0.45 0
7.6 0.45 0
7.8 0.45 0
8 0.45 0
8.2 0.45 0
8.4 0.45 0
8.6 0.45 0
8.8 0.45 0
9 0.45 0
9.2 0.45 0
9.4 0.45 0
9.6 0.45 0
9.8 0.45 0
10 0.45 0
0 0.5 0
0.2 0.5 0
0.4 0.5 0
0.6 0.5 0
0.8 0.5 0
1 0.5 0
1.2 0.5 0
1.4 0.5 0
1.6 0.5 0
1.8 0.5 0
2 0.5 0
2.2 0.5 0
2.4 0.5 0
2.6 0.5 0
2.8 0.5 0
3 0.5 0
3.2 0.5 0
3.4 0.5 0
3.6 0.5 0
3.8 0.5 0
4 0.5 0
4.2 0.5 0
4.4 0.5 0
4.6 0.5 0
4.8 0.5 0
5 0.5 0
5.2 0.5 0
5.4 0.5 0
5.6 0.5 0
5.8 0.5 0
6 0.5 0
6.2 0.5 0
6.4 0.5 0
6.6 0.5 0
6.8 0.5 0
7 0.5 0
7.2 0.5 0
7.4 0.5 0
7.6 0.5 0
7.8 0.5 0
8 0.5 0
8.2 0.5 0
8.4 0.5 0
8.6 0.5 0
8.8 0.5 0
9 0.5 0
9.2 0.5 0
9.4 0.5 0
9.6 0.5 0
9.8 0.5 0
10 0.5 0
0 0.55 0
0.2 0.55 0
0.4 0.55 0
0.6 0.55 0
0.8 0.55 0
1 0.55 0
1.2 0.55 0
1.4 0.55 0
1.6 0.55 0
1.8 0.55 0
2 0.55 0
2.2 0.55 0
2.4 0.55 0
2.6 0.55 0
2.8 0.55 0
3 0.55 0
3.2 0.55 0
3.4 0.55 0
3.6 0.55 0
3.8 0.55 0
4 0.55 0
4.2 0.55 0
4.4 0.55 0
4.6 0.55 0
4.8 0.55 0
5 0.55 0
5.2 0.55 0
5.4 0.55 0
5.6 0.55 0
5.8 0.55 0
6 0.55 0
6.2 0.55 0
6.4 0.55 0
6.6 0.55 0
6.8 0.55 0
7 0.55 0
7.2 0.55 0
7.4 0.55 0
7.6 0.55 0
7.8 0.55 0
8 0.55 0
8.2 0.55 0
8.4 0.55 0
8.6 0.55 0
8.8 0.55 0
9 0.55 0
9.2 0.55 0
9.4 0.55 0
9.6 0.55 0
9.8 0.55 0
10 0.55 0
0 0.6 0
0.2 0.6 0
0.4 0.6 0
0.6 0.6 0
0.8 0.6 0
1 0.6 0
1.2 0.6 0
1.4 0.6 0
1.6 0.6 0
1.8 0.6 0
2 0.6 0
2.2 0.6 0
2.4 0.6 0
2.6 0.6 0
2.8 0.6 0
3 0.6 0
3.2 0.6 0
3.4 0.6 0
3.6 0.6 0
3.8 0.6 0
4 0.6 0
4.2 0.6 0
4.4 0.6 0
4.6 0.6 0
4.8 0.6 0
5 0.6 0
5.2 0.6 0
5.4 0.6 0
5.6 0.6 0
5.8 0.6 0
6 0.6 0
6.2 0.6 0
6.4 0.6 0
6.6 0.6 0
6.8 0.6 0
7 0.6 0
7.2 0.6 0
7.4 0.6 0
7.6 0.6 0
7.8 0.6 0
8 0.6 0
8.2 0.6 0
8.4 0.6 0
8.6 0.6 0
8.8 0.6 0
9 0.6 0
9.2 0.6 0
9.4 0.6 0
9.6 0.6 0
9.8 0.6 0
10 0.6 0
0 0.65 0
0.2 0.65 0
0.4 0.65 0
0.6 0.65 0
0.8 0.65 0
1 0.65 0
1.2 0.65 0
1.4 0.65 0
1.6 0.65 0
1.8 0.65 0
2 0.65 0
2.2 0.65 0
2.4 0.65 0
2.6 0.65 0
2.8 0.65 0
3 0.65 0
3.2 0.65 0
3.4 0.65 0
3.6 0.65 0
3.8 0.65 0
4 0.65 0
4.2 0.65 0
4.4 0.65 0
4.6 0.65 0
4.8 0.65 0
5 0.65 0
5.2 0.65 0
5.4 0.65 0
5.6 0.65 0
5.8 0.65 0
6 0.65 0
6.2 0.65 0
6.4 0.65 0
6.6 0.65 0
6.8 0.65 0
7 0.65 0
7.2 0.65 0
7.4 0.65 0
7.6 0.65 0
7.8 0.65 0
8 0.65 0
8.2 0.65 0
8.4 0.65 0
8.6 0.65 0
8.8 0.65 0
9 0.65 0
9.2 0.65 0
9.4 0.65 0
9.6 0.65 0
9.8 0.65 0
10 0.65 0
0 0.7 0
0.2 0.7 0
0.4 0.7 0
0.6 0.7 0
0.8 0.7 0
1 0.7 0
1.2 0.7 0
1.4 0.7 0
1.6 0.7 0
1.8 0.7 0
2 0.7 0
2.2 0.7 0
2.4 0.7 0
2.6 0.7 0
2.8 0.7 0
3 0.7 0
3.2 0.7 0
3.4 0.7 0
3.6 0.7 0
3.8 0.7 0
4 0.7 0
4.2 0.7 0
4.4 0.7 0
4.6 0.7 0
4.8 0.7 0
5 0.7 0
5.2 0.7 0
5.4 0.7 0
5.6 0.7 0
5.8 0.7 0
6 0.7 0
6.2 0.7 0
6.4 0.7 0
6.6 0.7 0
6.8 0.7 0
7 0.7 0
7.2 0.7 0
7.4 0.7 0
7.6 0.7 0
7.8 0.7 0
8 0.7 0
8.2 0.7 0
8.4 0.7 0
8.6 0.7 0
8.8 0.7 0
9 0.7 0
9.2 0.7 0
9.4 0.7 0
9.6 0.7 0
9.8 0.7 0
10 0.7 0
0 0.75 0
0.2 0.75 0
0.4 0.75 0
0.6 0.75 0
0.8 0.75 0
1 0.75 0
1.2 0.75 0
1.4 0.75 0
1.6 0.75 0
1.8 0.75 0
2 0.75 0
2.2 0.75 0
2.4 0.75 0
2.6 0.75 0
2.8 0.75 0
3 0.75 0
3.2 0.75 0
3.4 0.75 0
3.6 0.75 0
3.8 0.75 0
4 0.75 0
4.2 0.75 0
4.4 0.75 0
4.6 0.75 0
4.8 0.75 0
5 0.75 0
5.2 0.75 0
5.4 0.75 0
5.6 0.75 0
5.8 0.75 0
6 0.75 0
6.2 0.75 0
6.4 0.75 0
6.6 0.75 0
6.8 0.75 0
7 0.75 0
7.2 0.75 0
7.4 0.75 0
7.6 0.75 0
7.8 0.75 0
8 0.75 0
8.2 0.75 0
8.4 0.75 0
8.6 0.75 0
8.8 0.75 0
9 0.75 0
9.2 0.75 0
9.4 0.75 0
9.6 0.75 0
9.8 0.75 0
10 0.75 0
0 0.8 0
0.2 0.8 0
0.4 0.8 0
0.6 0.8 0
0.8 0.8 0
1 0.8 0
1.2 0.8 0
1.4 0.8 0
1.6 0.8 0
1.8 0.8 0
2 0.8 0
2.2 0.8 0
2.4 0.8 0
2.6 0.8 0
2.8 0.8 0
3 0.8 0
3.2 0.8 0
3.4 0.8 0
3.6 0.8 0
3.8 0.8 0
4 0.8 0
4.2 0.8 0
4.4 0.8 0
4.6 0.8 0
4.8 0.8 0
5 0.8 0
5.2 0.8 0
5.4 0.8 0
5.6 0.8 0
5.8 0.8 0
6 0.8 0
6.2 0.8 0
6.4 0.8 0
6.6 0.8 0
6.8 0.8 0
7 0.8 0
7.2 0.8 0
7.4 0.8 0
7.6 0.8 0
7.8 0.8 0
8 0.8 0
8.2 0.8 0
8.4 0.8 0
8.6 0.8 0
8.8 0.8 0
9 0.8 0
9.2 0.8 0
9.4 0.8 0
9.6 0.8 0
9.8 0.8 0
10 0.8 0
0 0.85 0
0.2 0.85 0
0.4 0.85 0
0.6 0.85 0
0.8 0.85 0
1 0.85 0
1.2 0.85 0
1.4 0.85 0
1.6 0.85 0
1.8 0.85 0
2 0.85 0
2.2 0.85 0
2.4 0.85 0
2.6 0.85 0
2.8 0.85 0
3 0.85 0
3.2 0.85 0
3.4 0.85 0
3.6 0.85 0
3.8 0.85 0
4 0.85 0
4.2 0.85 0
4.4 0.85 0
4.6 0.85 0
4.8 0.85 0
5 0.85 0
5.2 0.85 0
5.4 0.85 0
5.6 0.85 0
5.8 0.85 0
6 0.85 0
6.2 0.85 0
6.4 0.85 0
6.6 0.85 0
6.8 0.85 0
7 0.85 0
7.2 0.85 0
7.4 0.85 0
7.6 0.85 0
7.8 0.85 0
8 0.85 0
8.2 0.85 0
8.4 0.85 0
8.6 0.85 0
8.8 0.85 0
9 0.85 0
9.2 0.85 0
9.4 0.85 0
9.6 0.85 0
9.8 0.85 0
10 0.85 0
0 0.9 0
0.2 0.9 0
0.4 0.9 0
0.6 0.9 0
0.8 0.9 0
1 0.9 0
1.2 0.9 0
1.4 0.9 0
1.6 0.9 0
1.8 0.9 0
2 0.9 0
2.2 0.9 0
2.4 0.9 0
2.6 0.9 0
2.8 0.9 0
3 0.9 0
3.2 0.9 0
3.4 0.9 0
3.6 0.9 0
3.8 0.9 0
4 0.9 0
4.2 0.9 0
4.4 0.9 0
4.6 0.9 0
4.8 0.9 0
5 0.9 0
5.2 0.9 0
5.4 0.9 0
5.6 0.9 0
5.8 0.9 0
6 0.9 0
6.2 0.9 0
6.4 0.9 0
6.6 0.9 0
6.8 0.9 0
7 0.9 0
7.2 0.9 0
7.4 0.9 0
7.6 0.9 0
7.8 0.9 0
8 0.9 0
8.2 0.9 0
8.4 0.9 0
8.6 0.9 0
8.8 0.9 0
9 0.9 0
9.2 0.9 0
9.4 0.9 0
9.6 0.9 0
9.8 0.9 0
10 0.9 0
0 0.95 0
0.2 0.95 0
0.4 0.95 0
0.6 0.95 0
0.8 0.95 0
1 0.95 0
1.2 0.95 0
1.4 0.95 0
1.6 0.95 0
1.8 0.95 0
2 0.95 0
2.2 0.95 0
2.4 0.95 0
2.6 0.95 0
2.8 0.95 0
3 0.95 0
3.2 0.95 0
3.4 0.95 0
3.6 0.95 0
3.8 0.95 0
4 0.95 0
4.2 0.95 0
4.4 0.95 0
4.6 0.95 0
4.8 0.95 0
5 0.95 0
5.2 0.95 0
5.4 0.95 0
5.6 0.95 0
5.8 0.95 0
6 0.95 0
6.2 0.95 0
6.4 0.95 0
6.6 0.95 0
6.8 0.95 0
7 0.95 0
7.2 0.95 0
7.4 0.95 0
7.6 0.95 0
7.8 0.95 0
8 0.95 0
8.2 0.95 0
8.4 0.95 0
8.6 0.95 0
8.8 0.95 0
9 0.95 0
9.2 0.95 0
9.4 0.95 0
9.6 0.95 0
9.8 0.95 0
10 0.95 0
0 1 0
0.2 1 0
0.4 1 0
0.6 1 0
0.8 1 0
1 1 0
1.2 1 0
1.4 1 0
1.6 1 0
1.8 1 0
2 1 0
2.2 1 0
2.4 1 0
2.6 1 0
2.8 1 0
3 1 0
3.2 1 0
3.4 1 0
3.6 1 0
3.8 1 0
4 1 0
4.2 1 0
4.4 1 0
4.6 1 0
4.8 1 0
5 1 0
5.2 1 0
5.4 1 0
5.6 1 0
5.8 1 0
6 1 0
6.2 1 0
6.4 1 0
6.6 1 0
6.8 1 0
7 1 0
7.2 1 0
7.4 1 0
7.6 1 0
7.8 1 0
8 1 0
8.2 1 0
8.4 1 0
8.6 1 0
8.8 1 0
9 1 0
9.2 1 0
9.4 1 0
9.6 1 0
9.8 1 0
10 1 0

CELL_DATA 1000
SCALARS phi float
LOOKUP_TABLE default 
4.711
4.711
4.711
4.711
4.711
4.711
4.711
4.711
4.711
4.711
4.711
4.711
4.711
4.711
4.711
4.711
4.711
4.711
4.711
4.711
4.711
4.711
4.711
4.711
4.711
4.711
4.711
4.711
4.711
4.711
4.711
4.711
4.711
4.711
4.711
4.711
4.711
4.711
4.711
4.711
4.711
4.711
4.711
4.711
4.711
4.711
4.711
4.711
4.711
4.711
4.711
4.711
4.711
4.711
4.711
4.711
4.711
4.711
4.711
4.711
4.711
4.711
4.711
4.711
4.711
4.711
4.711
4.711
4.711
4.711
4.711
4.711
4.711
4.711
4.711
4.711
4.711
4.711
4.711
4.711
4.711
4.711
4.711
4.711
4.711
4.711
4.711
4.711
4.711
4.711
4.711
4.711
4.711
4.711
4.711
4.711
4.711
4.711
4.711
4.711
4.711
4.711
4.711
4.711
4.711
4.711
4.711
4.711
4.711
4.711
4.711
4.711
4.711
4.711
4.711
4.711
4.711
4.711
4.711
4.711
4.711
4.711
4.711
4.711
4.711
4.711
4.711
4.711
4.711
4.711
4.711
4.711
4.711
4.711
4.711
4.711
4.711
4.711
4.711
4.711
4.711
4.711
4.711
4.711
4.711
4.711
4.711
4.711
4.711
4.711
4.711
4.711
4.711
4.711
4.711
4.711
4.711
4.711
4.711
4.711
4.711
4.711
4.711
4.711
4.711
4.711
4.711
4.711
4.711
4.711
4.711
4.711
4.711
4.711
4.711
4.711
4.711
4.711
4.711
4.711
4.711
4.711
4.711
4.711
4.711
4.711
4.711
4.711
4.711
4.711
4.711
4.711
4.711
4.711
4.711
4.711
4.711
4.711
4.711
4.711
4.711
4.711
4.711
4.711
4.711
4.711
4.711
4.711
4.711
4.711
4.711
4.711
4.711
4.711
4.711
4.711
4.711
4.711
4.711
4.711
4.711
4.711
4.711
4.711
4.711
4.711
4.711
4.711
4.711
4.711
4.711
4.711
4.711
4.711
4.711
4.711
4.711
4.711
4.711
4.711
4.711
4.711
4.711
4.711
4.711
4.711
4.711
4.711
4.711
4.711
4.711
4.711
4.711
4.711
4.711
4.711
4.711
4.711
4.711
4.711
4.711
4.711
4.711
4.711
4.711
4.711
4.711
4.711
4.711
4.711
4.711
4.711
4.711
4.711
4.711
4.711
4.711
4.711
4.711
4.711
4.711
4.711
4.711
4.711
4.711
4.711
4.711
4.711
4.711
4.711
4.711
4.711
4.711
4.711
4.711
4.711
4.711
4.711
4.711
4.711
4.711
4.711
4.711
4.711
4.711
4.711
4.711
4.711
4.711
4.711
4.711
4.711
4.711
4.711
4.711
4.711
4.711
4.711
4.711
4.711
4.711
4.711
4.711
4.711
4.711
4.711
4.711
4.711
4.711
4.711
4.711
4.711
4.711
4.711
4.711
4.711
4.711
4.711
4.711
4.711
4.711
4.711
4.711
4.711
4.711
4.711
4.711
4.711
4.711
4.711
4.711
4.711
4.711
4.711
4.711
4.711
4.711
4.711
4.711
4.711
4.711
4.711
4.711
4.711
4.711
4.711
4.711
4.711
4.711
4.711
4.711
4.711
4.711
4.711
4.711
4.711
4.711
4.711
4.711
4.711
4.711
4.711
4.711
4.711
4.711
4.711
4.711
4.711
4.711
4.711
4.711
4.711
4.711
4.711
4.711
4.711
4.711
4.711
4.711
4.711
4.711
4.711
4.711
4.711
4.711
4.711
4.711
4.711
4.711
4.711
4.711
4.711
4.711
4.711
4.711
4.711
4.711
4.711
4.711
4.711
4.711
4.711
4.711
4.711
4.711
4.711
4.711
4.711
4.711
4.711
4.711
4.711
4.711
4.711
4.711
4.711
4.711
4.711
4.711
4.711
4.711
4.711
4.711
4.711
4.711
4.711
4.711
4.711
4.711
4.711
4.711
4.711
4.711
4.711
4.711
4.711
4.711
4.711
4.711
4.711
4.711
4.711
4.711
4.711
4.711
4.711
4.711
4.711
4.711
4.711
4.711
4.711
4.711
4.711
4.711
4.711
4.711
4.711
4.711
4.711
4.711
4.711
4.711
4.711
4.711
4.711
4.711
4.711
4.711
4.711
4.711
4.711
4.711
4.711
4.711
4.711
4.711
4.711
4.711
4.711
4.711
4.711
4.711
4.711
4.711
4.711
4.711
4.711
4.711
4.711
4.711
4.711
4.711
4.711
4.711
4.711
4.711
4.711
4.711
4.711
4.711
4.711
4.711
4.711
4.711
4.711
4.711
4.711
4.711
4.711
4.711
4.711
4.711
4.711
4.711
4.711
4.711
4.711
4.711
4.711
4.711
4.711
4.711
4.711
4.711
4.711
4.711
4.711
4.711
4.711
4.711
4.711
4.711
4.711
4.711
4.711
4.711
4.711
4.711
4.711
4.711
4.711
4.711
4.711
4.711
4.711
4.711
4.711
4.711
4.711
4.711
4.711
4.711
4.711
4.711
4.711
4.711
4.711
4.711
4.711
4.711
4.711
4.711
4.711
4.711
4.711
4.711
4.711
4.711
4.711
4.711
4.711
4.711
4.711
4.711
4.711
4.711
4.711
4.711
4.711
4.711
4.711
4.711
4.711
4.711
4.711
4.711
4.711
4.711
4.711
4.711
4.711
4.711
4.711
4.711
4.711
4.711
4.711
4.711
4.711
4.711
4.711
4.711
4.711
4.711
4.711
4.711
4.711
4.711
4.711
4.711
4.711
4.711
4.711
4.711
4.711
4.711
4.711
4.711
4.711
4.711
4.711
4.711
4.711
4.711
4.711
4.711
4.711
4.711
4.711
4.711
4.711
4.711
4.711
4.711
4.711
4.711
4.711
4.711
4.711
4.711
4.711
4.711
4.711
4.711
4.711
4.711
4.711
4.711
4.711
4.711
4.711
4.711
4.711
4.711
4.711
4.711
4.711
4.711
4.711
4.711
4.711
4.711
4.711
4.711
4.711
4.711
4.711
4.711
4.711
4.711
4.711
4.711
4.711
4.711
4.711
4.711
4.711
4.711
4.711
4.711
4.711
4.711
4.711
4.711
4.711
4.711
4.711
4.711
4.711
4.711
4.711
4.711
4.711
4.711
4.711
4.711
4.711
4.711
4.711
4.711
4.711
4.711
4.711
4.711
4.711
4.711
4.711
4.711
4.711
4.711
4.711
4.711
4.711
4.711
4.711
4.711
4.711
4.711
4.711
4.711
4.711
4.711
4.711
4.711
4.711
4.711
4.711
4.711
4.711
4.711
4.711
4.711
4.711
4.711
4.711
4.711
4.711
4.711
4.711
4.711
4.711
4.711
4.711
4.711
4.711
4.711
4.711
4.711
4.711
4.711
4.711
4.711
4.711
4.711
4.711
4.711
4.711
4.711
4.711
4.711
4.711
4.711
4.711
4.711
4.711
4.711
4.711
4.711
4.711
4.711
4.711
4.711
4.711
4.711
4.711
4.711
4.711
4.711
4.711
4.711
4.711
4.711
4.711
4.711
4.711
4.711
4.711
4.711
4.711
4.711
4.711
4.711
4.711
4.711
4.711
4.711
4.711
4.711
4.711
4.711
4.711
4.711
4.711
4.711
4.711
4.711
4.711
4.711
4.711
4.711
4.711
4.711
4.711
4.711
4.711
4.711
4.711
4.711
4.711
4.711
4.711
4.711
4.711
4.711
4.711
4.711
4.711
4.711
4.711
4.711
4.711
4.711
4.711
4.711
4.711
4.711
4.711
4.711
4.711
4.711
4.711
4.711
4.711
4.711
4.711
4.711
4.711
4.711
4.711
4.711
4.711
4.711
4.711
4.711
4.711
4.711
4.711
4.711
4.711
4.711
4.711
4.711
4.711
4.711
4.711
4.711
4.711
4.711
4.711
4.711
4.711
4.711
4.711
4.711
4.711
4.711
4.711
4.711
4.711
4.711
4.711
4.711
4.711
4.711
4.711
4.711
4.711
4.711
4.711
4.711
4.711
4.711
4.711
4.711
4.711
4.711
4.711
4.711
4.711
4.711
4.711
4.711
4.711
4.711
4.711
4.711
4.711
4.711
4.711
4.711
4.711
4.711
4.711
4.711
4.711
4.711
4.711
4.711
4.711
4.711
4.711
4.711
4.711
4.711
4.711
4.711
4.711
4.711
4.711
4.711
4.711
4.711
4.711
4.711
4.711
4.711
4.711
4.711
4.711
4.711
4.711
4.711
4.711
4.711
4.711
4.711
4.711
4.711
4.711
4.711
4.711
4.711
4.711
4.711
4.711
4.711
4.711
4.711
4.711
4.711
4.711
4.711
4.711
4.711
4.711
4.711
4.711
4.711
4.711
4.711
4.711
4.711
4.711
4.711
4.711
4.711
4.711
4.711
4.711

SCALARS p float
LOOKUP_TABLE default 
1309.57
1309.57
1289
1269.38
1252.1
1239.14
1234.16
1234.16
0
0
0
0
740.781
740.781
740.781
735.509
723.584
707.012
687.653
666.765
645.109
623.108
600.983
578.842
556.729
534.66
512.634
490.649
468.696
446.771
424.867
402.981
381.109
359.248
337.395
315.55
293.71
271.875
250.044
228.216
206.389
184.565
162.742
140.921
119.1
97.2795
75.4597
53.6402
31.8207
10
1309.57
1309.57
1289
1269.38
1252.1
1239.14
1234.16
1234.16
0
0
0
0
740.781
740.781
740.781
735.509
723.584
707.012
687.653
666.765
645.109
623.108
600.983
578.842
556.729
534.66
512.634
490.649
468.696
446.771
424.867
402.981
381.109
359.248
337.395
315.55
293.71
271.875
250.044
228.216
206.389
184.565
162.742
140.921
119.1
97.2795
75.4597
53.6402
31.8207
10
1309.75
1309.75
1289.06
1269.55
1252.43
1239.8
1235.61
1235.61
0
0
0
0
739.661
739.661
739.661
734.48
722.673
706.262
687.063
666.314
644.768
622.852
600.791
578.697
556.62
534.577
512.571
490.601
468.659
446.742
424.845
402.964
381.096
359.238
337.388
315.544
293.706
271.872
250.041
228.213
206.388
184.564
162.741
140.92
119.099
97.279
75.4593
53.6399
31.8205
10
1309.82
1309.82
1289.01
1269.5
1252.37
1239.69
1235.81
1235.81
0
0
0
0
738.911
738.911
738.911
733.751
721.917
705.572
686.482
665.846
644.402
622.571
600.577
578.535
556.496
534.483
512.5
490.546
468.617
446.71
424.82
402.945
381.081
359.226
337.379
315.537
293.7
271.867
250.038
228.211
206.385
184.562
162.74
140.919
119.098
97.2784
75.4588
53.6395
31.8203
10
1309.71
1309.71
1288.81
1269.21
1251.85
1238.67
1234.14
1234.14
0
0
0
0
738.596
738.596
738.596
733.247
721.236
704.878
685.861
665.329
643.989
622.248
600.328
578.345
556.352
534.373
512.415
490.481
468.567
446.672
424.791
402.922
381.063
359.212
337.368
315.529
293.694
271.863
250.034
228.208
206.383
184.56
162.738
140.917
119.097
97.2776
75.4583
53.6391
31.82
10
1309.41
1309.41
1288.45
1268.67
1250.85
1236.64
1229.92
1229.92
0
0
0
0
738.85
738.85
738.85
732.891
720.558
704.126
685.162
664.734
643.506
621.868
600.034
578.12
556.18
534.242
512.315
490.405
468.509
446.627
424.756
402.895
381.042
359.196
337.355
315.519
293.686
271.857
250.029
228.204
206.38
184.558
162.737
140.916
119.096
97.2767
75.4576
53.6386
31.8198
10
1308.97
1308.97
1287.96
1267.88
1249.39
1233.64
1222.51
1222.51
1000.48
929.916
876.279
820.724
739.793
739.793
739.793
732.611
719.827
703.276
684.358
664.041
642.941
621.422
599.689
577.855
555.978
534.088
512.198
490.315
468.44
446.573
424.715
402.863
381.018
359.177
337.341
315.508
293.678
271.85
250.024
228.2
206.377
184.555
162.734
140.914
119.095
97.2757
75.4568
53.638
31.8194
10
1308.43
1308.43
1287.34
1266.89
1247.54
1229.87
1213.56
1186.7
1000.48
929.916
876.279
820.724
749.037
744.284
740.911
732.349
719.014
702.312
683.439
663.249
642.294
620.91
599.293
577.551
555.746
533.911
512.063
490.212
468.361
446.513
424.668
402.827
380.99
359.156
337.324
315.495
293.667
271.842
250.018
228.195
206.373
184.552
162.732
140.912
119.093
97.2744
75.4558
53.6373
31.819
10
1307.83
1307.83
1286.64
1265.74
1245.4
1225.6
1204.24
1164.99
1012.99
937.143
880.216
823.939
760.959
749.056
742.221
732.09
718.118
701.242
682.417
662.367
641.575
620.342
598.853
577.214
555.49
533.716
511.914
490.098
468.273
446.445
424.616
402.787
380.959
359.131
337.305
315.48
293.656
271.833
250.011
228.19
206.369
184.549
162.729
140.91
119.092
97.2731
75.4547
53.6365
31.8185
10
1307.22
1307.22
1285.88
1264.5
1243.11
1221.15
1195.33
1149.21
1022.89
945.034
885.325
828.748
771.878
754.074
743.685
731.841
717.161
700.09
681.318
661.42
640.804
619.735
598.384
576.856
555.216
533.508
511.756
489.976
468.18
446.374
424.561
402.744
380.926
359.106
337.286
315.465
293.644
271.824
250.004
228.184
206.365
184.545
162.727
140.908
119.09
97.2716
75.4536
53.6357
31.8179
10
1306.63
1306.63
1285.11
1263.23
1240.8
1216.79
1187.31
1137.63
1030.41
952.83
891.127
834.45
781.661
759.079
745.23
731.604
716.17
698.893
680.177
660.442
640.01
619.112
597.904
576.489
554.938
533.296
511.595
489.853
468.086
446.301
424.505
402.701
380.892
359.08
337.265
315.449
293.632
271.815
249.997
228.178
206.36
184.542
162.724
140.906
119.088
97.2701
75.4524
53.6348
31.8173
10
1306.09
1306.09
1284.37
1262.01
1238.59
1212.76
1180.4
1129.18
1036.05
960.017
897.082
840.396
790.181
763.795
746.75
731.367
715.175
697.692
679.039
659.47
639.226
618.5
597.434
576.132
554.667
533.09
511.438
489.734
467.994
446.231
424.451
402.659
380.86
359.055
337.246
315.434
293.62
271.805
249.989
228.173
206.356
184.538
162.721
140.903
119.086
97.2686
75.4512
53.6339
31.8167
10
1305.64
1305.64
1283.7
1260.9
1236.6
1209.24
1174.73
1123.1
1040.29
966.327
902.744
846.069
797.363
767.982
748.121
731.104
714.195
696.525
677.942
658.542
638.483
617.922
596.993
575.797
554.414
532.899
511.292
489.622
467.909
446.165
424.4
402.62
380.829
359.031
337.228
315.42
293.609
271.797
249.983
228.168
206.352
184.535
162.718
140.901
119.084
97.2672
75.4501
53.6331
31.8162
10
1305.26
1305.26
1283.13
1259.95
1234.92
1206.33
1170.3
1118.86
1043.54
971.66
907.795
851.102
803.186
771.464
749.233
730.784
713.245
695.425
676.923
657.688
637.805
617.399
596.595
575.497
554.187
532.727
511.162
489.523
467.832
446.106
424.354
402.585
380.802
359.01
337.211
315.407
293.6
271.789
249.977
228.163
206.348
184.532
162.716
140.899
119.083
97.2659
75.4491
53.6324
31.8158
10
1304.97
1304.97
1282.68
1259.2
1233.62
1204.12
1167.07
1116.08
1046.06
976.002
912.037
855.261
807.665
774.136
750.002
730.379
712.335
694.416
676.008
656.931
637.209
616.943
596.25
575.237
553.991
532.579
511.049
489.437
467.766
446.055
424.315
402.554
380.778
358.992
337.197
315.396
293.591
271.782
249.971
228.159
206.344
184.529
162.714
140.898
119.081
97.2647
75.4482
53.6317
31.8154
10
1304.73
1304.73
1282.37
1258.69
1232.72
1202.62
1164.96
1114.49
1048.07
979.397
915.372
858.423
810.85
775.956
750.382
729.875
711.473
693.513
675.21
656.282
636.703
616.557
595.959
575.018
553.826
532.454
510.954
489.364
467.711
446.012
424.282
402.528
380.758
358.976
337.185
315.387
293.584
271.777
249.967
228.155
206.342
184.527
162.712
140.896
119.08
97.2637
75.4474
53.6311
31.815
10
1304.52
1304.52
1282.2
1258.42
1232.24
1201.82
1163.89
1113.87
1049.71
981.924
917.773
860.565
812.823
776.933
750.356
729.263
710.657
692.718
674.53
655.738
636.283
616.239
595.719
574.837
553.689
532.35
510.875
489.303
467.664
445.976
424.254
402.507
380.742
358.963
337.175
315.379
293.577
271.772
249.963
228.152
206.339
184.525
162.71
140.895
119.079
97.2627
75.4467
53.6306
31.8147
10
1304.32
1304.32
1282.16
1258.38
1232.17
1201.7
1163.77
1114.13
1051.14
983.701
919.286
861.739
813.693
777.117
749.933
728.536
709.878
692.019
673.956
655.289
635.94
615.979
595.523
574.689
553.577
532.264
510.809
489.252
467.624
445.946
424.23
402.488
380.727
358.952
337.166
315.372
293.572
271.768
249.96
228.149
206.337
184.523
162.708
140.893
119.078
97.2619
75.446
53.6301
31.8145
10
1304.19
1304.19
1282.25
1258.54
1232.45
1202.18
1164.53
1115.2
1052.51
984.885
920.027
862.038
813.584
776.572
749.126
727.684
709.114
691.394
673.47
654.92
635.662
615.77
595.365
574.568
553.484
532.193
510.754
489.209
467.591
445.919
424.21
402.472
380.715
358.942
337.158
315.366
293.567
271.764
249.957
228.147
206.335
184.521
162.707
140.892
119.077
97.2611
75.4454
53.6297
31.8142
10
1304.19
1304.19
1282.25
1258.54
1232.45
1202.18
1164.53
1115.2
1052.51
984.885
920.027
862.038
813.584
776.572
749.126
727.684
709.114
691.394
673.47
654.92
635.662
615.77
595.365
574.568
553.484
532.193
510.754
489.209
467.591
445.919
424.21
402.472
380.715
358.942
337.158
315.366
293.567
271.764
249.957
228.147
206.335
184.521
162.707
140.892
119.077
97.2611
75.4454
53.6297
31.8142
10

SCALARS  u float
LOOKUP_TABLE default 
0.898438
0.55415
0.573678
0.570198
0.552589
0.529363
0.637115
2.28507
0
0
0
0
-1.44131
-0.0730059
0.171729
0.279959
0.360753
0.421714
0.467234
0.501163
0.526611
0.545927
0.56082
0.572503
0.581831
0.589408
0.595662
0.600901
0.605352
0.609181
0.612513
0.615442
0.618037
0.620349
0.622413
0.624255
0.62589
0.627331
0.628586
0.629666
0.630582
0.631348
0.631984
0.632509
0.632947
0.633321
0.633652
0.633954
0.634206
0.634206
3.18751
2.82565
2.85758
2.82307
2.72732
2.56981
2.66437
6.02824
0
0
0
0
-3.37768
0.273965
1.09766
1.54376
1.89459
2.16392
2.36639
2.5174
2.63019
2.71509
2.77973
2.82965
2.86877
2.8999
2.92503
2.94559
2.96264
2.97696
2.98914
2.9996
3.00867
3.01659
3.02355
3.02968
3.03505
3.03975
3.04381
3.0473
3.05025
3.05272
3.05477
3.05646
3.05787
3.05906
3.06011
3.06105
3.06184
3.06186
5.23342
4.88794
4.90102
4.84688
4.70755
4.46953
4.50017
8.02029
0
0
0
0
-4.07379
0.800555
2.0289
2.72913
3.28015
3.70887
4.03712
4.28647
4.47577
4.62015
4.7312
4.81752
4.88543
4.93953
4.98318
5.01883
5.04831
5.07298
5.09387
5.11175
5.12721
5.14068
5.15248
5.16284
5.17194
5.17989
5.18678
5.1927
5.19773
5.20195
5.20545
5.20834
5.21074
5.21276
5.21452
5.21609
5.21741
5.21744
7.0233
6.71018
6.70302
6.63809
6.48196
6.20697
6.14727
9.17202
0
0
0
0
-3.96456
1.5709
3.01578
3.88522
4.56672
5.10216
5.5189
5.84115
6.0899
6.28236
6.43213
6.54959
6.6426
6.71701
6.77719
6.8264
6.86712
6.90119
6.93003
6.95471
6.97604
6.99463
7.01093
7.02527
7.03788
7.04893
7.05855
7.06684
7.0739
7.07984
7.08478
7.08887
7.09225
7.09509
7.09753
7.0997
7.10152
7.10156
8.55356
8.27573
8.25754
8.19068
8.03793
7.76287
7.62267
9.83433
0
0
0
0
-3.10363
2.63463
4.12215
5.06912
5.80849
6.39395
6.85622
7.21948
7.50429
7.72775
7.90371
8.04306
8.15423
8.24368
8.31634
8.37597
8.42543
8.46691
8.50209
8.53226
8.5584
8.58124
8.60133
8.61906
8.63472
8.6485
8.66055
8.67098
8.67991
8.68745
8.69374
8.69895
8.70325
8.70684
8.7099
8.7126
8.71486
8.71491
9.82492
9.57844
9.55867
9.49826
9.36402
9.12108
8.94356
9.94943
0
0
0
0
-1.15917
4.03592
5.41319
6.33288
7.05196
7.62717
8.08798
8.45576
8.74844
8.9812
9.16667
9.31505
9.43444
9.53119
9.61028
9.67552
9.72991
9.77574
9.81481
9.84847
9.87778
9.90354
9.92632
9.94654
9.9645
9.98041
9.99439
10.0066
10.0171
10.0259
10.0334
10.0395
10.0446
10.0488
10.0524
10.0555
10.0582
10.0582
10.8393
10.6178
10.6029
10.5556
10.4509
10.2669
10.149
11.5033
5.31871
4.13464
3.66918
3.58893
3.09687
5.85985
6.93538
7.70684
8.32344
8.82705
9.23834
9.57245
9.84258
10.0605
10.2363
10.3786
10.4942
10.5888
10.6667
10.7316
10.7861
10.8324
10.8723
10.9069
10.9373
10.9642
10.9883
11.0098
11.0291
11.0464
11.0616
11.075
11.0866
11.0964
11.1047
11.1116
11.1172
11.1219
11.1258
11.1293
11.1321
11.1322
11.5987
11.3958
11.3892
11.3595
11.2913
11.1824
11.1976
12.4492
10.4317
8.82746
8.01005
7.73336
7.18638
8.05961
8.66747
9.17629
9.61543
9.99154
10.3091
10.5736
10.792
10.9713
11.1183
11.2389
11.3383
11.4207
11.4896
11.5476
11.5971
11.6397
11.6769
11.7097
11.7389
11.7652
11.789
11.8105
11.8301
11.8477
11.8634
11.8773
11.8894
11.8998
11.9085
11.9158
11.9218
11.9267
11.9308
11.9344
11.9373
11.9374
12.1043
11.9143
11.9175
11.9078
11.8798
11.8512
12.0043
13.1746
12.9814
12.035
11.3235
10.9726
10.4241
10.3543
10.4694
10.6614
10.8758
11.0845
11.2745
11.441
11.5836
11.7043
11.8059
11.8914
11.9635
12.0249
12.0774
12.1227
12.1624
12.1975
12.2289
12.2573
12.2832
12.307
12.329
12.3493
12.368
12.3851
12.4005
12.4143
12.4263
12.4367
12.4455
12.4527
12.4587
12.4636
12.4678
12.4713
12.4742
12.4743
12.357
12.175
12.1884
12.1997
12.2127
12.2619
12.5309
13.6212
14.1907
13.9256
13.5431
13.274
12.7946
12.3586
12.1189
12.0227
12.0085
12.036
12.0819
12.1339
12.1858
12.2348
12.2799
12.321
12.3583
12.3922
12.4231
12.4516
12.4781
12.5027
12.526
12.548
12.5689
12.5889
12.6079
12.6259
12.6428
12.6585
12.6729
12.6859
12.6974
12.7073
12.7157
12.7226
12.7284
12.733
12.7369
12.7403
12.7431
12.7431
12.3573
12.1787
12.2021
12.2345
12.2875
12.408
12.7684
13.7887
14.653
14.857
14.8078
14.696
14.3355
13.8259
13.4024
13.0998
12.8931
12.7531
12.6585
12.5948
12.5528
12.5265
12.5115
12.5048
12.5043
12.5082
12.5156
12.5254
12.537
12.5499
12.5638
12.5784
12.5935
12.6087
12.624
12.639
12.6535
12.6673
12.6802
12.6919
12.7023
12.7114
12.719
12.7254
12.7306
12.7348
12.7383
12.7414
12.744
12.744
12.1051
11.9254
11.9584
12.0113
12.1024
12.2862
12.7175
13.682
14.6429
15.1244
15.3251
15.3659
15.1307
14.6654
14.1802
13.7579
13.4133
13.1396
12.9252
12.7594
12.6328
12.5375
12.467
12.416
12.3802
12.3562
12.3412
12.3332
12.3306
12.3322
12.337
12.3443
12.3534
12.3638
12.3751
12.3868
12.3987
12.4102
12.4212
12.4314
12.4404
12.4483
12.455
12.4606
12.4651
12.4687
12.4718
12.4744
12.4767
12.4767
11.5999
11.4141
11.4565
11.529
11.6554
11.8943
12.3802
13.3028
14.2796
14.9095
15.267
15.4162
15.278
14.8806
14.3923
13.9119
13.4815
13.1148
12.8125
12.5694
12.3777
12.229
12.1153
12.0297
11.9662
11.9199
11.8872
11.8649
11.8507
11.8429
11.84
11.841
11.8449
11.851
11.8586
11.8673
11.8765
11.8858
11.8948
11.9032
11.9108
11.9175
11.9231
11.9277
11.9314
11.9344
11.9369
11.9391
11.941
11.941
10.841
10.6429
10.6947
10.786
10.944
11.2288
11.756
12.6464
13.606
14.302
14.7385
14.9413
14.856
14.5067
14.029
13.5236
13.047
12.6269
12.2729
11.9839
11.7536
11.5733
11.4341
11.3278
11.2476
11.1878
11.144
11.1126
11.0909
11.0767
11.0685
11.0649
11.0649
11.0677
11.0724
11.0784
11.0853
11.0925
11.0996
11.1064
11.1125
11.1178
11.1223
11.1259
11.1288
11.1312
11.1332
11.135
11.1366
11.1365
9.82701
9.60934
9.67158
9.78006
9.96406
10.2838
10.8377
11.6979
12.6216
13.3273
13.7799
13.9846
13.9064