# vtk DataFile Version 3.0
vtk output394
ASCII
DATASET STRUCTURED_GRID
DIMENSIONS 61 31 1
POINTS 1891 float
0 0 0
0.1 0 0
0.2 0 0
0.3 0 0
0.4 0 0
0.5 0 0
0.6 0 0
0.7 0 0
0.8 0 0
0.9 0 0
1 0 0
1.1 0 0
1.2 0 0
1.3 0 0
1.4 0 0
1.5 0 0
1.6 0 0
1.7 0 0
1.8 0 0
1.9 0 0
2 0 0
2.1 0 0
2.2 0 0
2.3 0 0
2.4 0 0
2.5 0 0
2.6 0 0
2.7 0 0
2.8 0 0
2.9 0 0
3 0 0
3.1 0 0
3.2 0 0
3.3 0 0
3.4 0 0
3.5 0 0
3.6 0 0
3.7 0 0
3.8 0 0
3.9 0 0
4 0 0
4.1 0 0
4.2 0 0
4.3 0 0
4.4 0 0
4.5 0 0
4.6 0 0
4.7 0 0
4.8 0 0
4.9 0 0
5 0 0
5.1 0 0
5.2 0 0
5.3 0 0
5.4 0 0
5.5 0 0
5.6 0 0
5.7 0 0
5.8 0 0
5.9 0 0
6 0 0
0 0.1 0
0.1 0.1 0
0.2 0.1 0
0.3 0.1 0
0.4 0.1 0
0.5 0.1 0
0.6 0.1 0
0.7 0.1 0
0.8 0.1 0
0.9 0.1 0
1 0.1 0
1.1 0.1 0
1.2 0.1 0
1.3 0.1 0
1.4 0.1 0
1.5 0.1 0
1.6 0.1 0
1.7 0.1 0
1.8 0.1 0
1.9 0.1 0
2 0.1 0
2.1 0.1 0
2.2 0.1 0
2.3 0.1 0
2.4 0.1 0
2.5 0.1 0
2.6 0.1 0
2.7 0.1 0
2.8 0.1 0
2.9 0.1 0
3 0.1 0
3.1 0.1 0
3.2 0.1 0
3.3 0.1 0
3.4 0.1 0
3.5 0.1 0
3.6 0.1 0
3.7 0.1 0
3.8 0.1 0
3.9 0.1 0
4 0.1 0
4.1 0.1 0
4.2 0.1 0
4.3 0.1 0
4.4 0.1 0
4.5 0.1 0
4.6 0.1 0
4.7 0.1 0
4.8 0.1 0
4.9 0.1 0
5 0.1 0
5.1 0.1 0
5.2 0.1 0
5.3 0.1 0
5.4 0.1 0
5.5 0.1 0
5.6 0.1 0
5.7 0.1 0
5.8 0.1 0
5.9 0.1 0
6 0.1 0
0 0.2 0
0.1 0.2 0
0.2 0.2 0
0.3 0.2 0
0.4 0.2 0
0.5 0.2 0
0.6 0.2 0
0.7 0.2 0
0.8 0.2 0
0.9 0.2 0
1 0.2 0
1.1 0.2 0
1.2 0.2 0
1.3 0.2 0
1.4 0.2 0
1.5 0.2 0
1.6 0.2 0
1.7 0.2 0
1.8 0.2 0
1.9 0.2 0
2 0.2 0
2.1 0.2 0
2.2 0.2 0
2.3 0.2 0
2.4 0.2 0
2.5 0.2 0
2.6 0.2 0
2.7 0.2 0
2.8 0.2 0
2.9 0.2 0
3 0.2 0
3.1 0.2 0
3.2 0.2 0
3.3 0.2 0
3.4 0.2 0
3.5 0.2 0
3.6 0.2 0
3.7 0.2 0
3.8 0.2 0
3.9 0.2 0
4 0.2 0
4.1 0.2 0
4.2 0.2 0
4.3 0.2 0
4.4 0.2 0
4.5 0.2 0
4.6 0.2 0
4.7 0.2 0
4.8 0.2 0
4.9 0.2 0
5 0.2 0
5.1 0.2 0
5.2 0.2 0
5.3 0.2 0
5.4 0.2 0
5.5 0.2 0
5.6 0.2 0
5.7 0.2 0
5.8 0.2 0
5.9 0.2 0
6 0.2 0
0 0.3 0
0.1 0.3 0
0.2 0.3 0
0.3 0.3 0
0.4 0.3 0
0.5 0.3 0
0.6 0.3 0
0.7 0.3 0
0.8 0.3 0
0.9 0.3 0
1 0.3 0
1.1 0.3 0
1.2 0.3 0
1.3 0.3 0
1.4 0.3 0
1.5 0.3 0
1.6 0.3 0
1.7 0.3 0
1.8 0.3 0
1.9 0.3 0
2 0.3 0
2.1 0.3 0
2.2 0.3 0
2.3 0.3 0
2.4 0.3 0
2.5 0.3 0
2.6 0.3 0
2.7 0.3 0
2.8 0.3 0
2.9 0.3 0
3 0.3 0
3.1 0.3 0
3.2 0.3 0
3.3 0.3 0
3.4 0.3 0
3.5 0.3 0
3.6 0.3 0
3.7 0.3 0
3.8 0.3 0
3.9 0.3 0
4 0.3 0
4.1 0.3 0
4.2 0.3 0
4.3 0.3 0
4.4 0.3 0
4.5 0.3 0
4.6 0.3 0
4.7 0.3 0
4.8 0.3 0
4.9 0.3 0
5 0.3 0
5.1 0.3 0
5.2 0.3 0
5.3 0.3 0
5.4 0.3 0
5.5 0.3 0
5.6 0.3 0
5.7 0.3 0
5.8 0.3 0
5.9 0.3 0
6 0.3 0
0 0.4 0
0.1 0.4 0
0.2 0.4 0
0.3 0.4 0
0.4 0.4 0
0.5 0.4 0
0.6 0.4 0
0.7 0.4 0
0.8 0.4 0
0.9 0.4 0
1 0.4 0
1.1 0.4 0
1.2 0.4 0
1.3 0.4 0
1.4 0.4 0
1.5 0.4 0
1.6 0.4 0
1.7 0.4 0
1.8 0.4 0
1.9 0.4 0
2 0.4 0
2.1 0.4 0
2.2 0.4 0
2.3 0.4 0
2.4 0.4 0
2.5 0.4 0
2.6 0.4 0
2.7 0.4 0
2.8 0.4 0
2.9 0.4 0
3 0.4 0
3.1 0.4 0
3.2 0.4 0
3.3 0.4 0
3.4 0.4 0
3.5 0.4 0
3.6 0.4 0
3.7 0.4 0
3.8 0.4 0
3.9 0.4 0
4 0.4 0
4.1 0.4 0
4.2 0.4 0
4.3 0.4 0
4.4 0.4 0
4.5 0.4 0
4.6 0.4 0
4.7 0.4 0
4.8 0.4 0
4.9 0.4 0
5 0.4 0
5.1 0.4 0
5.2 0.4 0
5.3 0.4 0
5.4 0.4 0
5.5 0.4 0
5.6 0.4 0
5.7 0.4 0
5.8 0.4 0
5.9 0.4 0
6 0.4 0
0 0.5 0
0.1 0.5 0
0.2 0.5 0
0.3 0.5 0
0.4 0.5 0
0.5 0.5 0
0.6 0.5 0
0.7 0.5 0
0.8 0.5 0
0.9 0.5 0
1 0.5 0
1.1 0.5 0
1.2 0.5 0
1.3 0.5 0
1.4 0.5 0
1.5 0.5 0
1.6 0.5 0
1.7 0.5 0
1.8 0.5 0
1.9 0.5 0
2 0.5 0
2.1 0.5 0
2.2 0.5 0
2.3 0.5 0
2.4 0.5 0
2.5 0.5 0
2.6 0.5 0
2.7 0.5 0
2.8 0.5 0
2.9 0.5 0
3 0.5 0
3.1 0.5 0
3.2 0.5 0
3.3 0.5 0
3.4 0.5 0
3.5 0.5 0
3.6 0.5 0
3.7 0.5 0
3.8 0.5 0
3.9 0.5 0
4 0.5 0
4.1 0.5 0
4.2 0.5 0
4.3 0.5 0
4.4 0.5 0
4.5 0.5 0
4.6 0.5 0
4.7 0.5 0
4.8 0.5 0
4.9 0.5 0
5 0.5 0
5.1 0.5 0
5.2 0.5 0
5.3 0.5 0
5.4 0.5 0
5.5 0.5 0
5.6 0.5 0
5.7 0.5 0
5.8 0.5 0
5.9 0.5 0
6 0.5 0
0 0.6 0
0.1 0.6 0
0.2 0.6 0
0.3 0.6 0
0.4 0.6 0
0.5 0.6 0
0.6 0.6 0
0.7 0.6 0
0.8 0.6 0
0.9 0.6 0
1 0.6 0
1.1 0.6 0
1.2 0.6 0
1.3 0.6 0
1.4 0.6 0
1.5 0.6 0
1.6 0.6 0
1.7 0.6 0
1.8 0.6 0
1.9 0.6 0
2 0.6 0
2.1 0.6 0
2.2 0.6 0
2.3 0.6 0
2.4 0.6 0
2.5 0.6 0
2.6 0.6 0
2.7 0.6 0
2.8 0.6 0
2.9 0.6 0
3 0.6 0
3.1 0.6 0
3.2 0.6 0
3.3 0.6 0
3.4 0.6 0
3.5 0.6 0
3.6 0.6 0
3.7 0.6 0
3.8 0.6 0
3.9 0.6 0
4 0.6 0
4.1 0.6 0
4.2 0.6 0
4.3 0.6 0
4.4 0.6 0
4.5 0.6 0
4.6 0.6 0
4.7 0.6 0
4.8 0.6 0
4.9 0.6 0
5 0.6 0
5.1 0.6 0
5.2 0.6 0
5.3 0.6 0
5.4 0.6 0
5.5 0.6 0
5.6 0.6 0
5.7 0.6 0
5.8 0.6 0
5.9 0.6 0
6 0.6 0
0 0.7 0
0.1 0.7 0
0.2 0.7 0
0.3 0.7 0
0.4 0.7 0
0.5 0.7 0
0.6 0.7 0
0.7 0.7 0
0.8 0.7 0
0.9 0.7 0
1 0.7 0
1.1 0.7 0
1.2 0.7 0
1.3 0.7 0
1.4 0.7 0
1.5 0.7 0
1.6 0.7 0
1.7 0.7 0
1.8 0.7 0
1.9 0.7 0
2 0.7 0
2.1 0.7 0
2.2 0.7 0
2.3 0.7 0
2.4 0.7 0
2.5 0.7 0
2.6 0.7 0
2.7 0.7 0
2.8 0.7 0
2.9 0.7 0
3 0.7 0
3.1 0.7 0
3.2 0.7 0
3.3 0.7 0
3.4 0.7 0
3.5 0.7 0
3.6 0.7 0
3.7 0.7 0
3.8 0.7 0
3.9 0.7 0
4 0.7 0
4.1 0.7 0
4.2 0.7 0
4.3 0.7 0
4.4 0.7 0
4.5 0.7 0
4.6 0.7 0
4.7 0.7 0
4.8 0.7 0
4.9 0.7 0
5 0.7 0
5.1 0.7 0
5.2 0.7 0
5.3 0.7 0
5.4 0.7 0
5.5 0.7 0
5.6 0.7 0
5.7 0.7 0
5.8 0.7 0
5.9 0.7 0
6 0.7 0
0 0.8 0
0.1 0.8 0
0.2 0.8 0
0.3 0.8 0
0.4 0.8 0
0.5 0.8 0
0.6 0.8 0
0.7 0.8 0
0.8 0.8 0
0.9 0.8 0
1 0.8 0
1.1 0.8 0
1.2 0.8 0
1.3 0.8 0
1.4 0.8 0
1.5 0.8 0
1.6 0.8 0
1.7 0.8 0
1.8 0.8 0
1.9 0.8 0
2 0.8 0
2.1 0.8 0
2.2 0.8 0
2.3 0.8 0
2.4 0.8 0
2.5 0.8 0
2.6 0.8 0
2.7 0.8 0
2.8 0.8 0
2.9 0.8 0
3 0.8 0
3.1 0.8 0
3.2 0.8 0
3.3 0.8 0
3.4 0.8 0
3.5 0.8 0
3.6 0.8 0
3.7 0.8 0
3.8 0.8 0
3.9 0.8 0
4 0.8 0
4.1 0.8 0
4.2 0.8 0
4.3 0.8 0
4.4 0.8 0
4.5 0.8 0
4.6 0.8 0
4.7 0.8 0
4.8 0.8 0
4.9 0.8 0
5 0.8 0
5.1 0.8 0
5.2 0.8 0
5.3 0.8 0
5.4 0.8 0
5.5 0.8 0
5.6 0.8 0
5.7 0.8 0
5.8 0.8 0
5.9 0.8 0
6 0.8 0
0 0.9 0
0.1 0.9 0
0.2 0.9 0
0.3 0.9 0
0.4 0.9 0
0.5 0.9 0
0.6 0.9 0
0.7 0.9 0
0.8 0.9 0
0.9 0.9 0
1 0.9 0
1.1 0.9 0
1.2 0.9 0
1.3 0.9 0
1.4 0.9 0
1.5 0.9 0
1.6 0.9 0
1.7 0.9 0
1.8 0.9 0
1.9 0.9 0
2 0.9 0
2.1 0.9 0
2.2 0.9 0
2.3 0.9 0
2.4 0.9 0
2.5 0.9 0
2.6 0.9 0
2.7 0.9 0
2.8 0.9 0
2.9 0.9 0
3 0.9 0
3.1 0.9 0
3.2 0.9 0
3.3 0.9 0
3.4 0.9 0
3.5 0.9 0
3.6 0.9 0
3.7 0.9 0
3.8 0.9 0
3.9 0.9 0
4 0.9 0
4.1 0.9 0
4.2 0.9 0
4.3 0.9 0
4.4 0.9 0
4.5 0.9 0
4.6 0.9 0
4.7 0.9 0
4.8 0.9 0
4.9 0.9 0
5 0.9 0
5.1 0.9 0
5.2 0.9 0
5.3 0.9 0
5.4 0.9 0
5.5 0.9 0
5.6 0.9 0
5.7 0.9 0
5.8 0.9 0
5.9 0.9 0
6 0.9 0
0 1 0
0.1 1 0
0.2 1 0
0.3 1 0
0.4 1 0
0.5 1 0
0.6 1 0
0.7 1 0
0.8 1 0
0.9 1 0
1 1 0
1.1 1 0
1.2 1 0
1.3 1 0
1.4 1 0
1.5 1 0
1.6 1 0
1.7 1 0
1.8 1 0
1.9 1 0
2 1 0
2.1 1 0
2.2 1 0
2.3 1 0
2.4 1 0
2.5 1 0
2.6 1 0
2.7 1 0
2.8 1 0
2.9 1 0
3 1 0
3.1 1 0
3.2 1 0
3.3 1 0
3.4 1 0
3.5 1 0
3.6 1 0
3.7 1 0
3.8 1 0
3.9 1 0
4 1 0
4.1 1 0
4.2 1 0
4.3 1 0
4.4 1 0
4.5 1 0
4.6 1 0
4.7 1 0
4.8 1 0
4.9 1 0
5 1 0
5.1 1 0
5.2 1 0
5.3 1 0
5.4 1 0
5.5 1 0
5.6 1 0
5.7 1 0
5.8 1 0
5.9 1 0
6 1 0
0 1.1 0
0.1 1.1 0
0.2 1.1 0
0.3 1.1 0
0.4 1.1 0
0.5 1.1 0
0.6 1.1 0
0.7 1.1 0
0.8 1.1 0
0.9 1.1 0
1 1.1 0
1.1 1.1 0
1.2 1.1 0
1.3 1.1 0
1.4 1.1 0
1.5 1.1 0
1.6 1.1 0
1.7 1.1 0
1.8 1.1 0
1.9 1.1 0
2 1.1 0
2.1 1.1 0
2.2 1.1 0
2.3 1.1 0
2.4 1.1 0
2.5 1.1 0
2.6 1.1 0
2.7 1.1 0
2.8 1.1 0
2.9 1.1 0
3 1.1 0
3.1 1.1 0
3.2 1.1 0
3.3 1.1 0
3.4 1.1 0
3.5 1.1 0
3.6 1.1 0
3.7 1.1 0
3.8 1.1 0
3.9 1.1 0
4 1.1 0
4.1 1.1 0
4.2 1.1 0
4.3 1.1 0
4.4 1.1 0
4.5 1.1 0
4.6 1.1 0
4.7 1.1 0
4.8 1.1 0
4.9 1.1 0
5 1.1 0
5.1 1.1 0
5.2 1.1 0
5.3 1.1 0
5.4 1.1 0
5.5 1.1 0
5.6 1.1 0
5.7 1.1 0
5.8 1.1 0
5.9 1.1 0
6 1.1 0
0 1.2 0
0.1 1.2 0
0.2 1.2 0
0.3 1.2 0
0.4 1.2 0
0.5 1.2 0
0.6 1.2 0
0.7 1.2 0
0.8 1.2 0
0.9 1.2 0
1 1.2 0
1.1 1.2 0
1.2 1.2 0
1.3 1.2 0
1.4 1.2 0
1.5 1.2 0
1.6 1.2 0
1.7 1.2 0
1.8 1.2 0
1.9 1.2 0
2 1.2 0
2.1 1.2 0
2.2 1.2 0
2.3 1.2 0
2.4 1.2 0
2.5 1.2 0
2.6 1.2 0
2.7 1.2 0
2.8 1.2 0
2.9 1.2 0
3 1.2 0
3.1 1.2 0
3.2 1.2 0
3.3 1.2 0
3.4 1.2 0
3.5 1.2 0
3.6 1.2 0
3.7 1.2 0
3.8 1.2 0
3.9 1.2 0
4 1.2 0
4.1 1.2 0
4.2 1.2 0
4.3 1.2 0
4.4 1.2 0
4.5 1.2 0
4.6 1.2 0
4.7 1.2 0
4.8 1.2 0
4.9 1.2 0
5 1.2 0
5.1 1.2 0
5.2 1.2 0
5.3 1.2 0
5.4 1.2 0
5.5 1.2 0
5.6 1.2 0
5.7 1.2 0
5.8 1.2 0
5.9 1.2 0
6 1.2 0
0 1.3 0
0.1 1.3 0
0.2 1.3 0
0.3 1.3 0
0.4 1.3 0
0.5 1.3 0
0.6 1.3 0
0.7 1.3 0
0.8 1.3 0
0.9 1.3 0
1 1.3 0
1.1 1.3 0
1.2 1.3 0
1.3 1.3 0
1.4 1.3 0
1.5 1.3 0
1.6 1.3 0
1.7 1.3 0
1.8 1.3 0
1.9 1.3 0
2 1.3 0
2.1 1.3 0
2.2 1.3 0
2.3 1.3 0
2.4 1.3 0
2.5 1.3 0
2.6 1.3 0
2.7 1.3 0
2.8 1.3 0
2.9 1.3 0
3 1.3 0
3.1 1.3 0
3.2 1.3 0
3.3 1.3 0
3.4 1.3 0
3.5 1.3 0
3.6 1.3 0
3.7 1.3 0
3.8 1.3 0
3.9 1.3 0
4 1.3 0
4.1 1.3 0
4.2 1.3 0
4.3 1.3 0
4.4 1.3 0
4.5 1.3 0
4.6 1.3 0
4.7 1.3 0
4.8 1.3 0
4.9 1.3 0
5 1.3 0
5.1 1.3 0
5.2 1.3 0
5.3 1.3 0
5.4 1.3 0
5.5 1.3 0
5.6 1.3 0
5.7 1.3 0
5.8 1.3 0
5.9 1.3 0
6 1.3 0
0 1.4 0
0.1 1.4 0
0.2 1.4 0
0.3 1.4 0
0.4 1.4 0
0.5 1.4 0
0.6 1.4 0
0.7 1.4 0
0.8 1.4 0
0.9 1.4 0
1 1.4 0
1.1 1.4 0
1.2 1.4 0
1.3 1.4 0
1.4 1.4 0
1.5 1.4 0
1.6 1.4 0
1.7 1.4 0
1.8 1.4 0
1.9 1.4 0
2 1.4 0
2.1 1.4 0
2.2 1.4 0
2.3 1.4 0
2.4 1.4 0
2.5 1.4 0
2.6 1.4 0
2.7 1.4 0
2.8 1.4 0
2.9 1.4 0
3 1.4 0
3.1 1.4 0
3.2 1.4 0
3.3 1.4 0
3.4 1.4 0
3.5 1.4 0
3.6 1.4 0
3.7 1.4 0
3.8 1.4 0
3.9 1.4 0
4 1.4 0
4.1 1.4 0
4.2 1.4 0
4.3 1.4 0
4.4 1.4 0
4.5 1.4 0
4.6 1.4 0
4.7 1.4 0
4.8 1.4 0
4.9 1.4 0
5 1.4 0
5.1 1.4 0
5.2 1.4 0
5.3 1.4 0
5.4 1.4 0
5.5 1.4 0
5.6 1.4 0
5.7 1.4 0
5.8 1.4 0
5.9 1.4 0
6 1.4 0
0 1.5 0
0.1 1.5 0
0.2 1.5 0
0.3 1.5 0
0.4 1.5 0
0.5 1.5 0
0.6 1.5 0
0.7 1.5 0
0.8 1.5 0
0.9 1.5 0
1 1.5 0
1.1 1.5 0
1.2 1.5 0
1.3 1.5 0
1.4 1.5 0
1.5 1.5 0
1.6 1.5 0
1.7 1.5 0
1.8 1.5 0
1.9 1.5 0
2 1.5 0
2.1 1.5 0
2.2 1.5 0
2.3 1.5 0
2.4 1.5 0
2.5 1.5 0
2.6 1.5 0
2.7 1.5 0
2.8 1.5 0
2.9 1.5 0
3 1.5 0
3.1 1.5 0
3.2 1.5 0
3.3 1.5 0
3.4 1.5 0
3.5 1.5 0
3.6 1.5 0
3.7 1.5 0
3.8 1.5 0
3.9 1.5 0
4 1.5 0
4.1 1.5 0
4.2 1.5 0
4.3 1.5 0
4.4 1.5 0
4.5 1.5 0
4.6 1.5 0
4.7 1.5 0
4.8 1.5 0
4.9 1.5 0
5 1.5 0
5.1 1.5 0
5.2 1.5 0
5.3 1.5 0
5.4 1.5 0
5.5 1.5 0
5.6 1.5 0
5.7 1.5 0
5.8 1.5 0
5.9 1.5 0
6 1.5 0
0 1.6 0
0.1 1.6 0
0.2 1.6 0
0.3 1.6 0
0.4 1.6 0
0.5 1.6 0
0.6 1.6 0
0.7 1.6 0
0.8 1.6 0
0.9 1.6 0
1 1.6 0
1.1 1.6 0
1.2 1.6 0
1.3 1.6 0
1.4 1.6 0
1.5 1.6 0
1.6 1.6 0
1.7 1.6 0
1.8 1.6 0
1.9 1.6 0
2 1.6 0
2.1 1.6 0
2.2 1.6 0
2.3 1.6 0
2.4 1.6 0
2.5 1.6 0
2.6 1.6 0
2.7 1.6 0
2.8 1.6 0
2.9 1.6 0
3 1.6 0
3.1 1.6 0
3.2 1.6 0
3.3 1.6 0
3.4 1.6 0
3.5 1.6 0
3.6 1.6 0
3.7 1.6 0
3.8 1.6 0
3.9 1.6 0
4 1.6 0
4.1 1.6 0
4.2 1.6 0
4.3 1.6 0
4.4 1.6 0
4.5 1.6 0
4.6 1.6 0
4.7 1.6 0
4.8 1.6 0
4.9 1.6 0
5 1.6 0
5.1 1.6 0
5.2 1.6 0
5.3 1.6 0
5.4 1.6 0
5.5 1.6 0
5.6 1.6 0
5.7 1.6 0
5.8 1.6 0
5.9 1.6 0
6 1.6 0
0 1.7 0
0.1 1.7 0
0.2 1.7 0
0.3 1.7 0
0.4 1.7 0
0.5 1.7 0
0.6 1.7 0
0.7 1.7 0
0.8 1.7 0
0.9 1.7 0
1 1.7 0
1.1 1.7 0
1.2 1.7 0
1.3 1.7 0
1.4 1.7 0
1.5 1.7 0
1.6 1.7 0
1.7 1.7 0
1.8 1.7 0
1.9 1.7 0
2 1.7 0
2.1 1.7 0
2.2 1.7 0
2.3 1.7 0
2.4 1.7 0
2.5 1.7 0
2.6 1.7 0
2.7 1.7 0
2.8 1.7 0
2.9 1.7 0
3 1.7 0
3.1 1.7 0
3.2 1.7 0
3.3 1.7 0
3.4 1.7 0
3.5 1.7 0
3.6 1.7 0
3.7 1.7 0
3.8 1.7 0
3.9 1.7 0
4 1.7 0
4.1 1.7 0
4.2 1.7 0
4.3 1.7 0
4.4 1.7 0
4.5 1.7 0
4.6 1.7 0
4.7 1.7 0
4.8 1.7 0
4.9 1.7 0
5 1.7 0
5.1 1.7 0
5.2 1.7 0
5.3 1.7 0
5.4 1.7 0
5.5 1.7 0
5.6 1.7 0
5.7 1.7 0
5.8 1.7 0
5.9 1.7 0
6 1.7 0
0 1.8 0
0.1 1.8 0
0.2 1.8 0
0.3 1.8 0
0.4 1.8 0
0.5 1.8 0
0.6 1.8 0
0.7 1.8 0
0.8 1.8 0
0.9 1.8 0
1 1.8 0
1.1 1.8 0
1.2 1.8 0
1.3 1.8 0
1.4 1.8 0
1.5 1.8 0
1.6 1.8 0
1.7 1.8 0
1.8 1.8 0
1.9 1.8 0
2 1.8 0
2.1 1.8 0
2.2 1.8 0
2.3 1.8 0
2.4 1.8 0
2.5 1.8 0
2.6 1.8 0
2.7 1.8 0
2.8 1.8 0
2.9 1.8 0
3 1.8 0
3.1 1.8 0
3.2 1.8 0
3.3 1.8 0
3.4 1.8 0
3.5 1.8 0
3.6 1.8 0
3.7 1.8 0
3.8 1.8 0
3.9 1.8 0
4 1.8 0
4.1 1.8 0
4.2 1.8 0
4.3 1.8 0
4.4 1.8 0
4.5 1.8 0
4.6 1.8 0
4.7 1.8 0
4.8 1.8 0
4.9 1.8 0
5 1.8 0
5.1 1.8 0
5.2 1.8 0
5.3 1.8 0
5.4 1.8 0
5.5 1.8 0
5.6 1.8 0
5.7 1.8 0
5.8 1.8 0
5.9 1.8 0
6 1.8 0
0 1.9 0
0.1 1.9 0
0.2 1.9 0
0.3 1.9 0
0.4 1.9 0
0.5 1.9 0
0.6 1.9 0
0.7 1.9 0
0.8 1.9 0
0.9 1.9 0
1 1.9 0
1.1 1.9 0
1.2 1.9 0
1.3 1.9 0
1.4 1.9 0
1.5 1.9 0
1.6 1.9 0
1.7 1.9 0
1.8 1.9 0
1.9 1.9 0
2 1.9 0
2.1 1.9 0
2.2 1.9 0
2.3 1.9 0
2.4 1.9 0
2.5 1.9 0
2.6 1.9 0
2.7 1.9 0
2.8 1.9 0
2.9 1.9 0
3 1.9 0
3.1 1.9 0
3.2 1.9 0
3.3 1.9 0
3.4 1.9 0
3.5 1.9 0
3.6 1.9 0
3.7 1.9 0
3.8 1.9 0
3.9 1.9 0
4 1.9 0
4.1 1.9 0
4.2 1.9 0
4.3 1.9 0
4.4 1.9 0
4.5 1.9 0
4.6 1.9 0
4.7 1.9 0
4.8 1.9 0
4.9 1.9 0
5 1.9 0
5.1 1.9 0
5.2 1.9 0
5.3 1.9 0
5.4 1.9 0
5.5 1.9 0
5.6 1.9 0
5.7 1.9 0
5.8 1.9 0
5.9 1.9 0
6 1.9 0
0 2 0
0.1 2 0
0.2 2 0
0.3 2 0
0.4 2 0
0.5 2 0
0.6 2 0
0.7 2 0
0.8 2 0
0.9 2 0
1 2 0
1.1 2 0
1.2 2 0
1.3 2 0
1.4 2 0
1.5 2 0
1.6 2 0
1.7 2 0
1.8 2 0
1.9 2 0
2 2 0
2.1 2 0
2.2 2 0
2.3 2 0
2.4 2 0
2.5 2 0
2.6 2 0
2.7 2 0
2.8 2 0
2.9 2 0
3 2 0
3.1 2 0
3.2 2 0
3.3 2 0
3.4 2 0
3.5 2 0
3.6 2 0
3.7 2 0
3.8 2 0
3.9 2 0
4 2 0
4.1 2 0
4.2 2 0
4.3 2 0
4.4 2 0
4.5 2 0
4.6 2 0
4.7 2 0
4.8 2 0
4.9 2 0
5 2 0
5.1 2 0
5.2 2 0
5.3 2 0
5.4 2 0
5.5 2 0
5.6 2 0
5.7 2 0
5.8 2 0
5.9 2 0
6 2 0
0 2.1 0
0.1 2.1 0
0.2 2.1 0
0.3 2.1 0
0.4 2.1 0
0.5 2.1 0
0.6 2.1 0
0.7 2.1 0
0.8 2.1 0
0.9 2.1 0
1 2.1 0
1.1 2.1 0
1.2 2.1 0
1.3 2.1 0
1.4 2.1 0
1.5 2.1 0
1.6 2.1 0
1.7 2.1 0
1.8 2.1 0
1.9 2.1 0
2 2.1 0
2.1 2.1 0
2.2 2.1 0
2.3 2.1 0
2.4 2.1 0
2.5 2.1 0
2.6 2.1 0
2.7 2.1 0
2.8 2.1 0
2.9 2.1 0
3 2.1 0
3.1 2.1 0
3.2 2.1 0
3.3 2.1 0
3.4 2.1 0
3.5 2.1 0
3.6 2.1 0
3.7 2.1 0
3.8 2.1 0
3.9 2.1 0
4 2.1 0
4.1 2.1 0
4.2 2.1 0
4.3 2.1 0
4.4 2.1 0
4.5 2.1 0
4.6 2.1 0
4.7 2.1 0
4.8 2.1 0
4.9 2.1 0
5 2.1 0
5.1 2.1 0
5.2 2.1 0
5.3 2.1 0
5.4 2.1 0
5.5 2.1 0
5.6 2.1 0
5.7 2.1 0
5.8 2.1 0
5.9 2.1 0
6 2.1 0
0 2.2 0
0.1 2.2 0
0.2 2.2 0
0.3 2.2 0
0.4 2.2 0
0.5 2.2 0
0.6 2.2 0
0.7 2.2 0
0.8 2.2 0
0.9 2.2 0
1 2.2 0
1.1 2.2 0
1.2 2.2 0
1.3 2.2 0
1.4 2.2 0
1.5 2.2 0
1.6 2.2 0
1.7 2.2 0
1.8 2.2 0
1.9 2.2 0
2 2.2 0
2.1 2.2 0
2.2 2.2 0
2.3 2.2 0
2.4 2.2 0
2.5 2.2 0
2.6 2.2 0
2.7 2.2 0
2.8 2.2 0
2.9 2.2 0
3 2.2 0
3.1 2.2 0
3.2 2.2 0
3.3 2.2 0
3.4 2.2 0
3.5 2.2 0
3.6 2.2 0
3.7 2.2 0
3.8 2.2 0
3.9 2.2 0
4 2.2 0
4.1 2.2 0
4.2 2.2 0
4.3 2.2 0
4.4 2.2 0
4.5 2.2 0
4.6 2.2 0
4.7 2.2 0
4.8 2.2 0
4.9 2.2 0
5 2.2 0
5.1 2.2 0
5.2 2.2 0
5.3 2.2 0
5.4 2.2 0
5.5 2.2 0
5.6 2.2 0
5.7 2.2 0
5.8 2.2 0
5.9 2.2 0
6 2.2 0
0 2.3 0
0.1 2.3 0
0.2 2.3 0
0.3 2.3 0
0.4 2.3 0
0.5 2.3 0
0.6 2.3 0
0.7 2.3 0
0.8 2.3 0
0.9 2.3 0
1 2.3 0
1.1 2.3 0
1.2 2.3 0
1.3 2.3 0
1.4 2.3 0
1.5 2.3 0
1.6 2.3 0
1.7 2.3 0
1.8 2.3 0
1.9 2.3 0
2 2.3 0
2.1 2.3 0
2.2 2.3 0
2.3 2.3 0
2.4 2.3 0
2.5 2.3 0
2.6 2.3 0
2.7 2.3 0
2.8 2.3 0
2.9 2.3 0
3 2.3 0
3.1 2.3 0
3.2 2.3 0
3.3 2.3 0
3.4 2.3 0
3.5 2.3 0
3.6 2.3 0
3.7 2.3 0
3.8 2.3 0
3.9 2.3 0
4 2.3 0
4.1 2.3 0
4.2 2.3 0
4.3 2.3 0
4.4 2.3 0
4.5 2.3 0
4.6 2.3 0
4.7 2.3 0
4.8 2.3 0
4.9 2.3 0
5 2.3 0
5.1 2.3 0
5.2 2.3 0
5.3 2.3 0
5.4 2.3 0
5.5 2.3 0
5.6 2.3 0
5.7 2.3 0
5.8 2.3 0
5.9 2.3 0
6 2.3 0
0 2.4 0
0.1 2.4 0
0.2 2.4 0
0.3 2.4 0
0.4 2.4 0
0.5 2.4 0
0.6 2.4 0
0.7 2.4 0
0.8 2.4 0
0.9 2.4 0
1 2.4 0
1.1 2.4 0
1.2 2.4 0
1.3 2.4 0
1.4 2.4 0
1.5 2.4 0
1.6 2.4 0
1.7 2.4 0
1.8 2.4 0
1.9 2.4 0
2 2.4 0
2.1 2.4 0
2.2 2.4 0
2.3 2.4 0
2.4 2.4 0
2.5 2.4 0
2.6 2.4 0
2.7 2.4 0
2.8 2.4 0
2.9 2.4 0
3 2.4 0
3.1 2.4 0
3.2 2.4 0
3.3 2.4 0
3.4 2.4 0
3.5 2.4 0
3.6 2.4 0
3.7 2.4 0
3.8 2.4 0
3.9 2.4 0
4 2.4 0
4.1 2.4 0
4.2 2.4 0
4.3 2.4 0
4.4 2.4 0
4.5 2.4 0
4.6 2.4 0
4.7 2.4 0
4.8 2.4 0
4.9 2.4 0
5 2.4 0
5.1 2.4 0
5.2 2.4 0
5.3 2.4 0
5.4 2.4 0
5.5 2.4 0
5.6 2.4 0
5.7 2.4 0
5.8 2.4 0
5.9 2.4 0
6 2.4 0
0 2.5 0
0.1 2.5 0
0.2 2.5 0
0.3 2.5 0
0.4 2.5 0
0.5 2.5 0
0.6 2.5 0
0.7 2.5 0
0.8 2.5 0
0.9 2.5 0
1 2.5 0
1.1 2.5 0
1.2 2.5 0
1.3 2.5 0
1.4 2.5 0
1.5 2.5 0
1.6 2.5 0
1.7 2.5 0
1.8 2.5 0
1.9 2.5 0
2 2.5 0
2.1 2.5 0
2.2 2.5 0
2.3 2.5 0
2.4 2.5 0
2.5 2.5 0
2.6 2.5 0
2.7 2.5 0
2.8 2.5 0
2.9 2.5 0
3 2.5 0
3.1 2.5 0
3.2 2.5 0
3.3 2.5 0
3.4 2.5 0
3.5 2.5 0
3.6 2.5 0
3.7 2.5 0
3.8 2.5 0
3.9 2.5 0
4 2.5 0
4.1 2.5 0
4.2 2.5 0
4.3 2.5 0
4.4 2.5 0
4.5 2.5 0
4.6 2.5 0
4.7 2.5 0
4.8 2.5 0
4.9 2.5 0
5 2.5 0
5.1 2.5 0
5.2 2.5 0
5.3 2.5 0
5.4 2.5 0
5.5 2.5 0
5.6 2.5 0
5.7 2.5 0
5.8 2.5 0
5.9 2.5 0
6 2.5 0
0 2.6 0
0.1 2.6 0
0.2 2.6 0
0.3 2.6 0
0.4 2.6 0
0.5 2.6 0
0.6 2.6 0
0.7 2.6 0
0.8 2.6 0
0.9 2.6 0
1 2.6 0
1.1 2.6 0
1.2 2.6 0
1.3 2.6 0
1.4 2.6 0
1.5 2.6 0
1.6 2.6 0
1.7 2.6 0
1.8 2.6 0
1.9 2.6 0
2 2.6 0
2.1 2.6 0
2.2 2.6 0
2.3 2.6 0
2.4 2.6 0
2.5 2.6 0
2.6 2.6 0
2.7 2.6 0
2.8 2.6 0
2.9 2.6 0
3 2.6 0
3.1 2.6 0
3.2 2.6 0
3.3 2.6 0
3.4 2.6 0
3.5 2.6 0
3.6 2.6 0
3.7 2.6 0
3.8 2.6 0
3.9 2.6 0
4 2.6 0
4.1 2.6 0
4.2 2.6 0
4.3 2.6 0
4.4 2.6 0
4.5 2.6 0
4.6 2.6 0
4.7 2.6 0
4.8 2.6 0
4.9 2.6 0
5 2.6 0
5.1 2.6 0
5.2 2.6 0
5.3 2.6 0
5.4 2.6 0
5.5 2.6 0
5.6 2.6 0
5.7 2.6 0
5.8 2.6 0
5.9 2.6 0
6 2.6 0
0 2.7 0
0.1 2.7 0
0.2 2.7 0
0.3 2.7 0
0.4 2.7 0
0.5 2.7 0
0.6 2.7 0
0.7 2.7 0
0.8 2.7 0
0.9 2.7 0
1 2.7 0
1.1 2.7 0
1.2 2.7 0
1.3 2.7 0
1.4 2.7 0
1.5 2.7 0
1.6 2.7 0
1.7 2.7 0
1.8 2.7 0
1.9 2.7 0
2 2.7 0
2.1 2.7 0
2.2 2.7 0
2.3 2.7 0
2.4 2.7 0
2.5 2.7 0
2.6 2.7 0
2.7 2.7 0
2.8 2.7 0
2.9 2.7 0
3 2.7 0
3.1 2.7 0
3.2 2.7 0
3.3 2.7 0
3.4 2.7 0
3.5 2.7 0
3.6 2.7 0
3.7 2.7 0
3.8 2.7 0
3.9 2.7 0
4 2.7 0
4.1 2.7 0
4.2 2.7 0
4.3 2.7 0
4.4 2.7 0
4.5 2.7 0
4.6 2.7 0
4.7 2.7 0
4.8 2.7 0
4.9 2.7 0
5 2.7 0
5.1 2.7 0
5.2 2.7 0
5.3 2.7 0
5.4 2.7 0
5.5 2.7 0
5.6 2.7 0
5.7 2.7 0
5.8 2.7 0
5.9 2.7 0
6 2.7 0
0 2.8 0
0.1 2.8 0
0.2 2.8 0
0.3 2.8 0
0.4 2.8 0
0.5 2.8 0
0.6 2.8 0
0.7 2.8 0
0.8 2.8 0
0.9 2.8 0
1 2.8 0
1.1 2.8 0
1.2 2.8 0
1.3 2.8 0
1.4 2.8 0
1.5 2.8 0
1.6 2.8 0
1.7 2.8 0
1.8 2.8 0
1.9 2.8 0
2 2.8 0
2.1 2.8 0
2.2 2.8 0
2.3 2.8 0
2.4 2.8 0
2.5 2.8 0
2.6 2.8 0
2.7 2.8 0
2.8 2.8 0
2.9 2.8 0
3 2.8 0
3.1 2.8 0
3.2 2.8 0
3.3 2.8 0
3.4 2.8 0
3.5 2.8 0
3.6 2.8 0
3.7 2.8 0
3.8 2.8 0
3.9 2.8 0
4 2.8 0
4.1 2.8 0
4.2 2.8 0
4.3 2.8 0
4.4 2.8 0
4.5 2.8 0
4.6 2.8 0
4.7 2.8 0
4.8 2.8 0
4.9 2.8 0
5 2.8 0
5.1 2.8 0
5.2 2.8 0
5.3 2.8 0
5.4 2.8 0
5.5 2.8 0
5.6 2.8 0
5.7 2.8 0
5.8 2.8 0
5.9 2.8 0
6 2.8 0
0 2.9 0
0.1 2.9 0
0.2 2.9 0
0.3 2.9 0
0.4 2.9 0
0.5 2.9 0
0.6 2.9 0
0.7 2.9 0
0.8 2.9 0
0.9 2.9 0
1 2.9 0
1.1 2.9 0
1.2 2.9 0
1.3 2.9 0
1.4 2.9 0
1.5 2.9 0
1.6 2.9 0
1.7 2.9 0
1.8 2.9 0
1.9 2.9 0
2 2.9 0
2.1 2.9 0
2.2 2.9 0
2.3 2.9 0
2.4 2.9 0
2.5 2.9 0
2.6 2.9 0
2.7 2.9 0
2.8 2.9 0
2.9 2.9 0
3 2.9 0
3.1 2.9 0
3.2 2.9 0
3.3 2.9 0
3.4 2.9 0
3.5 2.9 0
3.6 2.9 0
3.7 2.9 0
3.8 2.9 0
3.9 2.9 0
4 2.9 0
4.1 2.9 0
4.2 2.9 0
4.3 2.9 0
4.4 2.9 0
4.5 2.9 0
4.6 2.9 0
4.7 2.9 0
4.8 2.9 0
4.9 2.9 0
5 2.9 0
5.1 2.9 0
5.2 2.9 0
5.3 2.9 0
5.4 2.9 0
5.5 2.9 0
5.6 2.9 0
5.7 2.9 0
5.8 2.9 0
5.9 2.9 0
6 2.9 0
0 3 0
0.1 3 0
0.2 3 0
0.3 3 0
0.4 3 0
0.5 3 0
0.6 3 0
0.7 3 0
0.8 3 0
0.9 3 0
1 3 0
1.1 3 0
1.2 3 0
1.3 3 0
1.4 3 0
1.5 3 0
1.6 3 0
1.7 3 0
1.8 3 0
1.9 3 0
2 3 0
2.1 3 0
2.2 3 0
2.3 3 0
2.4 3 0
2.5 3 0
2.6 3 0
2.7 3 0
2.8 3 0
2.9 3 0
3 3 0
3.1 3 0
3.2 3 0
3.3 3 0
3.4 3 0
3.5 3 0
3.6 3 0
3.7 3 0
3.8 3 0
3.9 3 0
4 3 0
4.1 3 0
4.2 3 0
4.3 3 0
4.4 3 0
4.5 3 0
4.6 3 0
4.7 3 0
4.8 3 0
4.9 3 0
5 3 0
5.1 3 0
5.2 3 0
5.3 3 0
5.4 3 0
5.5 3 0
5.6 3 0
5.7 3 0
5.8 3 0
5.9 3 0
6 3 0

CELL_DATA 1800
SCALARS phi float
LOOKUP_TABLE default 
4.711
4.711
4.711
4.711
4.711
4.711
4.711
4.711
4.711
4.711
4.711
4.711
4.711
4.711
4.711
4.711
4.711
4.711
4.711
4.711
4.711
4.711
4.711
4.711
4.711
4.711
4.711
4.711
4.711
4.711
4.711
4.711
4.711
4.711
4.711
4.711
4.711
4.711
4.711
4.711
4.711
4.711
4.711
4.711
4.711
4.711
4.711
4.711
4.711
4.711
4.711
4.711
4.711
4.711
4.711
4.711
4.711
4.711
4.711
4.711
4.711
4.711
4.711
4.711
4.711
4.711
4.711
4.711
4.711
4.711
4.711
4.711
4.711
4.711
4.711
4.711
4.711
4.711
4.711
4.711
4.711
4.711
4.711
4.711
4.711
4.711
4.711
4.711
4.711
4.711
4.711
4.711
4.711
4.711
4.711
4.711
4.711
4.711
4.711
4.711
4.711
4.711
4.711
4.711
4.711
4.711
4.711
4.711
4.711
4.711
4.711
4.711
4.711
4.711
4.711
4.711
4.711
4.711
4.711
4.711
4.711
4.711
4.711
4.711
4.711
4.711
4.711
4.711
4.711
4.711
4.711
4.711
4.711
4.711
4.711
4.711
4.711
4.711
4.711
4.711
4.711
4.711
4.711
4.711
4.711
4.711
4.711
4.711
4.711
4.711
4.711
4.711
4.711
4.711
4.711
4.711
4.711
4.711
4.711
4.711
4.711
4.711
4.711
4.711
4.711
4.711
4.711
4.711
4.711
4.711
4.711
4.711
4.711
4.711
4.711
4.711
4.711
4.711
4.711
4.711
4.711
4.711
4.711
4.711
4.711
4.711
4.711
4.711
4.711
4.711
4.711
4.711
4.711
4.711
4.711
4.711
4.711
4.711
4.711
4.711
4.711
4.711
4.711
4.711
4.711
4.711
4.711
4.711
4.711
4.711
4.711
4.711
4.711
4.711
4.711
4.711
4.711
4.711
4.711
4.711
4.711
4.711
4.711
4.711
4.711
4.711
4.711
4.711
4.711
4.711
4.711
4.711
4.711
4.711
4.711
4.711
4.711
4.711
4.711
4.711
4.711
4.711
4.711
4.711
4.711
4.711
4.711
4.711
4.711
4.711
4.711
4.711
4.711
4.711
4.711
4.711
4.711
4.711
4.711
4.711
4.711
4.711
4.711
4.711
4.711
4.711
4.711
4.711
4.711
4.711
4.711
4.711
4.711
4.711
4.711
4.711
4.711
4.711
4.711
4.711
4.711
4.711
4.711
4.711
4.711
4.711
4.711
4.711
4.711
4.711
4.711
4.711
4.711
4.711
4.711
4.711
4.711
4.711
4.711
4.711
4.711
4.711
4.711
4.711
4.711
4.711
4.711
4.711
4.711
4.711
4.711
4.711
4.711
4.711
4.711
4.711
4.711
4.711
4.711
4.711
4.711
4.711
4.711
4.711
4.711
4.711
4.711
4.711
4.711
4.711
4.711
4.711
4.711
4.711
4.711
4.711
4.711
4.711
4.711
4.711
4.711
4.711
4.711
4.711
4.711
4.711
4.711
4.711
4.711
4.711
4.711
4.711
4.711
4.711
4.711
4.711
4.711
4.711
4.711
4.711
4.711
4.711
4.711
4.711
4.711
4.711
4.711
4.711
4.711
4.711
4.711
4.711
4.711
4.711
4.711
4.711
4.711
4.711
4.711
4.711
4.711
4.711
4.711
4.711
4.711
4.711
4.711
4.711
4.711
4.711
4.711
4.711
4.711
4.711
4.711
4.711
4.711
4.711
4.711
4.711
4.711
4.711
4.711
4.711
4.711
4.711
4.711
4.711
4.711
4.711
4.711
4.711
4.711
4.711
4.711
4.711
4.711
4.711
4.711
4.711
4.711
4.711
4.711
4.711
4.711
4.711
4.711
4.711
4.711
4.711
4.711
4.711
4.711
4.711
4.711
4.711
4.711
4.711
4.711
4.711
4.711
4.711
4.711
4.711
4.711
4.711
4.711
4.711
4.711
4.711
4.711
4.711
4.711
4.711
4.711
4.711
4.711
4.711
4.711
4.711
4.711
4.711
4.711
4.711
4.711
4.711
4.711
4.711
4.711
4.711
4.711
4.711
4.711
4.711
4.711
4.711
4.711
4.711
4.711
4.711
4.711
4.711
4.711
4.711
4.711
4.711
4.711
4.711
4.711
4.711
4.711
4.711
4.711
4.711
4.711
4.711
4.711
4.711
4.711
4.711
4.711
4.711
4.711
4.711
4.711
4.711
4.711
4.711
4.711
4.711
4.711
4.711
4.711
4.711
4.711
4.711
4.711
4.711
4.711
4.711
4.711
4.711
4.711
4.711
4.711
4.711
4.711
4.711
4.711
4.711
4.711
4.711
4.711
4.711
4.711
4.711
4.711
4.711
4.711
4.711
4.711
4.711
4.711
4.711
4.711
4.711
4.711
4.711
4.711
4.711
4.711
4.711
4.711
4.711
4.711
4.711
4.711
4.711
4.711
4.711
4.711
4.711
4.711
4.711
4.711
4.711
4.711
4.711
4.711
4.711
4.711
4.711
4.711
4.711
4.711
4.711
4.711
4.711
4.711
4.711
4.711
4.711
4.711
4.711
4.711
4.711
4.711
4.711
4.711
4.711
4.711
4.711
4.711
4.711
4.711
4.711
4.711
4.711
4.711
4.711
4.711
4.711
4.711
4.711
4.711
4.711
4.711
4.711
4.711
4.711
4.711
4.711
4.711
4.711
4.711
4.711
4.711
4.711
4.711
4.711
4.711
4.711
4.711
4.711
4.711
4.711
4.711
4.711
4.711
4.711
4.711
4.711
4.711
4.711
4.711
4.711
4.711
4.711
4.711
4.711
4.711
4.711
4.711
4.711
4.711
4.711
4.711
4.711
4.711
4.711
4.711
4.711
4.711
4.711
4.711
4.711
4.711
4.711
4.711
4.711
4.711
4.711
4.711
4.711
4.711
4.711
4.711
4.711
4.711
4.711
4.711
4.711
4.711
4.711
4.711
4.711
4.711
4.711
4.711
4.711
4.711
4.711
4.711
4.711
4.711
4.711
4.711
4.711
4.711
4.711
4.711
4.711
4.711
4.711
4.711
4.711
4.711
4.711
4.711
4.711
4.711
4.711
4.711
4.711
4.711
4.711
4.711
4.711
4.711
4.711
4.711
4.711
4.711
4.711
4.711
4.711
4.711
4.711
4.711
4.711
4.711
4.711
4.711
4.711
4.711
4.711
4.711
4.711
4.711
4.711
4.711
4.711
4.711
4.711
4.711
4.711
4.711
4.711
4.711
4.711
4.711
4.711
4.711
4.711
4.711
4.711
4.711
4.711
4.711
4.711
4.711
4.711
4.711
4.711
4.711
4.711
4.711
4.711
4.711
4.711
4.711
4.711
4.711
4.711
4.711
4.711
4.711
4.711
4.711
4.711
4.711
4.711
4.711
4.711
4.711
4.711
4.711
4.711
4.711
4.711
4.711
4.711
4.711
4.711
4.711
4.711
4.711
4.711
4.711
4.711
4.711
4.711
4.711
4.711
4.711
4.711
4.711
4.711
4.711
4.711
4.711
4.711
4.711
4.711
4.711
4.711
4.711
4.711
4.711
4.711
4.711
4.711
4.711
4.711
4.711
4.711
4.711
4.711
4.711
4.711
4.711
4.711
4.711
4.711
4.711
4.711
4.711
4.711
4.711
4.711
4.711
4.711
4.711
4.711
4.711
4.711
4.711
4.711
4.711
4.711
4.711
4.711
4.711
4.711
4.711
4.711
4.711
4.711
4.711
4.711
4.711
4.711
4.711
4.711
4.711
4.711
4.711
4.711
4.711
4.711
4.711
4.711
4.711
4.711
4.711
4.711
4.711
4.711
4.711
4.711
4.711
4.711
4.711
4.711
4.711
4.711
4.711
4.711
4.711
4.711
4.711
4.711
4.711
4.711
4.711
4.711
4.711
4.711
4.711
4.711
4.711
4.711
4.711
4.711
4.711
4.711
4.711
4.711
4.711
4.711
4.711
4.711
4.711
4.711
4.711
4.711
4.711
4.711
4.711
4.711
4.711
4.711
4.711
4.711
4.711
4.711
4.711
4.711
4.711
4.711
4.711
4.711
4.711
4.711
4.711
4.711
4.711
4.711
4.711
4.711
4.711
4.711
4.711
4.711
4.711
4.711
4.711
4.711
4.711
4.711
4.711
4.711
4.711
4.711
4.711
4.711
4.711
4.711
4.711
4.711
4.711
4.711
4.711
4.711
4.711
4.711
4.711
4.711
4.711
4.711
4.711
4.711
4.711
4.711
4.711
4.711
4.711
4.711
4.711
4.711
4.711
4.711
4.711
4.711
4.711
4.711
4.711
4.711
4.711
4.711
4.711
4.711
4.711
4.711
4.711
4.711
4.711
4.711
4.711
4.711
4.711
4.711
4.711
4.711
4.711
4.711
4.711
4.711
4.711
4.711
4.711
4.711
4.711
4.711
4.711
4.711
4.711
4.711
4.711
4.711
4.711
4.711
4.711
4.711
4.711
4.711
4.711
4.711
4.711
4.711
4.711
4.711
4.711
4.711
4.711
4.711
4.711
4.711
4.711
4.711
4.711
4.711
4.711
4.711
4.711
4.711
4.711
4.711
4.711
4.711
4.711
4.711
4.711
4.711
4.711
4.711
4.711
4.711
4.711
4.711
4.711
4.711
4.711
4.711
4.711
4.711
4.711
4.711
4.711
4.711
4.711
4.711
4.711
4.711
4.711
4.711
4.711
4.711
4.711
4.711
4.711
4.711
4.711
4.711
4.711
4.711
4.711
4.711
4.711
4.711
4.711
4.711
4.711
4.711
4.711
4.711
4.711
4.711
4.711
4.711
4.711
4.711
4.711
4.711
4.711
4.711
4.711
4.711
4.711
4.711
4.711
4.711
4.711
4.711
4.711
4.711
4.711
4.711
4.711
4.711
4.711
4.711
4.711
4.711
4.711
4.711
4.711
4.711
4.711
4.711
4.711
4.711
4.711
4.711
4.711
4.711
4.711
4.711
4.711
4.711
4.711
4.711
4.711
4.711
4.711
4.711
4.711
4.711
4.711
4.711
4.711
4.711
4.711
4.711
4.711
4.711
4.711
4.711
4.711
4.711
4.711
4.711
4.711
4.711
4.711
4.711
4.711
4.711
4.711
4.711
4.711
4.711
4.711
4.711
4.711
4.711
4.711
4.711
4.711
4.711
4.711
4.711
4.711
4.711
4.711
4.711
4.711
4.711
4.711
4.711
4.711
4.711
4.711
4.711
4.711
4.711
4.711
4.711
4.711
4.711
4.711
4.711
4.711
4.711
4.711
4.711
4.711
4.711
4.711
4.711
4.711
4.711
4.711
4.711
4.711
4.711
4.711
4.711
4.711
4.711
4.711
4.711
4.711
4.711
4.711
4.711
4.711
4.711
4.711
4.711
4.711
4.711
4.711
4.711
4.711
4.711
4.711
4.711
4.711
4.711
4.711
4.711
4.711
4.711
4.711
4.711
4.711
4.711
4.711
4.711
4.711
4.711
4.711
4.711
4.711
4.711
4.711
4.711
4.711
4.711
4.711
4.711
4.711
4.711
4.711
4.711
4.711
4.711
4.711
4.711
4.711
4.711
4.711
4.711
4.711
4.711
4.711
4.711
4.711
4.711
4.711
4.711
4.711
4.711
4.711
4.711
4.711
4.711
4.711
4.711
4.711
4.711
4.711
4.711
4.711
4.711
4.711
4.711
4.711
4.711
4.711
4.711
4.711
4.711
4.711
4.711
4.711
4.711
4.711
4.711
4.711
4.711
4.711
4.711
4.711
4.711
4.711
4.711
4.711
4.711
4.711
4.711
4.711
4.711
4.711
4.711
4.711
4.711
4.711
4.711
4.711
4.711
4.711
4.711
4.711
4.711
4.711
4.711
4.711
4.711
4.711
4.711
4.711
4.711
4.711
4.711
4.711
4.711
4.711
4.711
4.711
4.711
4.711
4.711
4.711
4.711
4.711
4.711
4.711
4.711
4.711
4.711
4.711
4.711
4.711
4.711
4.711
4.711
4.711
4.711
4.711
4.711
4.711
4.711
4.711
4.711
4.711
4.711
4.711
4.711
4.711
4.711
4.711
4.711
4.711
4.711
4.711
4.711
4.711
4.711
4.711
4.711
4.711
4.711
4.711
4.711
4.711
4.711
4.711
4.711
4.711
4.711
4.711
4.711
4.711
4.711
4.711
4.711
4.711
4.711
4.711
4.711
4.711
4.711
4.711
4.711
4.711
4.711
4.711
4.711
4.711
4.711
4.711
4.711
4.711
4.711
4.711
4.711
4.711
4.711
4.711
4.711
4.711
4.711
4.711
4.711
4.711
4.711
4.711
4.711
4.711
4.711
4.711
4.711
4.711
4.711
4.711
4.711
4.711
4.711
4.711
4.711
4.711
4.711
4.711
4.711
4.711
4.711
4.711
4.711
4.711
4.711
4.711
4.711
4.711
4.711
4.711
4.711
4.711
4.711
4.711
4.711
4.711
4.711
4.711
4.711
4.711
4.711
4.711
4.711
4.711
4.711
4.711
4.711
4.711
4.711
4.711
4.711
4.711
4.711
4.711
4.711
4.711
4.711
4.711
4.711
4.711
4.711
4.711
4.711
4.711
4.711
4.711
4.711
4.711
4.711
4.711
4.711
4.711
4.711
4.711
4.711
4.711
4.711
4.711
4.711
4.711
4.711
4.711
4.711
4.711
4.711
4.711
4.711
4.711
4.711
4.711
4.711
4.711
4.711
4.711
4.711
4.711
4.711
4.711
4.711
4.711
4.711
4.711
4.711
4.711
4.711
4.711
4.711
4.711
4.711
4.711
4.711
4.711
4.711
4.711
4.711
4.711
4.711
4.711
4.711
4.711
4.711
4.711
4.711
4.711
4.711
4.711
4.711
4.711
4.711
4.711
4.711
4.711
4.711
4.711
4.711
4.711
4.711
4.711
4.711
4.711
4.711
4.711
4.711
4.711
4.711
4.711
4.711
4.711
4.711
4.711
4.711
4.711
4.711
4.711
4.711
4.711
4.711
4.711
4.711
4.711
4.711
4.711
4.711
4.711
4.711
4.711
4.711
4.711
4.711
4.711
4.711
4.711
4.711
4.711
4.711
4.711
4.711
4.711
4.711
4.711
4.711
4.711
4.711
4.711
4.711
4.711
4.711
4.711
4.711
4.711
4.711
4.711
4.711
4.711
4.711
4.711
4.711
4.711
4.711
4.711
4.711
4.711
4.711
4.711
4.711
4.711
4.711
4.711
4.711
4.711
4.711
4.711
4.711
4.711
4.711
4.711
4.711
4.711
4.711
4.711
4.711
4.711
4.711
4.711
4.711
4.711
4.711
4.711
4.711
4.711
4.711
4.711
4.711
4.711
4.711
4.711
4.711
4.711
4.711
4.711
4.711
4.711
4.711
4.711
4.711
4.711
4.711
4.711
4.711
4.711
4.711
4.711
4.711
4.711
4.711
4.711
4.711
4.711
4.711
4.711
4.711
4.711
4.711
4.711
4.711
4.711
4.711
4.711
4.711
4.711
4.711
4.711
4.711
4.711
4.711
4.711
4.711
4.711
4.711
4.711
4.711
4.711
4.711
4.711
4.711
4.711
4.711
4.711
4.711
4.711
4.711
4.711
4.711
4.711
4.711
4.711
4.711
4.711
4.711
4.711
4.711
4.711
4.711
4.711
4.711
4.711
4.711
4.711
4.711
4.711
4.711
4.711
4.711
4.711
4.711
4.711
4.711
4.711
4.711
4.711
4.711
4.711
4.711
4.711
4.711
4.711
4.711
4.711
4.711
4.711
4.711
4.711
4.711
4.711
4.711
4.711
4.711
4.711
4.711
4.711
4.711
4.711
4.711
4.711
4.711
4.711
4.711
4.711
4.711
4.711
4.711
4.711
4.711
4.711
4.711
4.711
4.711
4.711
4.711
4.711
4.711
4.711
4.711
4.711
4.711
4.711
4.711
4.711
4.711
4.711
4.711
4.711
4.711

SCALARS p float
LOOKUP_TABLE default 
8448.83
8448.83
8413.67
8419.1
8419.1
0
0
0
0
0
-2295.46
-2295.46
-2253.23
-2189.32
-2110.39
-2020.24
-1920.51
-1811.91
-1693.97
-1569.02
-1440.18
-1309.88
-1180.07
-1052.59
-928.818
-809.843
-696.492
-589.121
-487.932
-393.882
-307.088
-227.582
-155.315
-90.1655
-31.9487
19.5695
64.6624
103.632
136.801
164.503
187.078
204.863
218.192
227.389
232.767
234.623
233.239
228.879
221.79
212.199
200.316
186.33
170.413
152.717
133.378
112.511
90.2128
66.5371
41.3823
10
8448.83
8448.83
8413.67
8419.1
8419.1
0
0
0
0
0
-2295.46
-2295.46
-2253.23
-2189.32
-2110.39
-2020.24
-1920.51
-1811.91
-1693.97
-1569.02
-1440.18
-1309.88
-1180.07
-1052.59
-928.818
-809.843
-696.492
-589.121
-487.932
-393.882
-307.088
-227.582
-155.315
-90.1655
-31.9487
19.5695
64.6624
103.632
136.801
164.503
187.078
204.863
218.192
227.389
232.767
234.623
233.239
228.879
221.79
212.199
200.316
186.33
170.413
152.717
133.378
112.511
90.2128
66.5371
41.3823
10
8360.22
8360.22
8340.71
8375.18
8375.18
0
0
0
0
0
-2316.11
-2316.11
-2264.84