# vtk DataFile Version 3.0
vtk output219
ASCII
DATASET STRUCTURED_GRID
DIMENSIONS 36 26 1
POINTS 936 float
0 0 0
0.171429 0 0
0.342857 0 0
0.514286 0 0
0.685714 0 0
0.857143 0 0
1.02857 0 0
1.2 0 0
1.37143 0 0
1.54286 0 0
1.71429 0 0
1.88571 0 0
2.05714 0 0
2.22857 0 0
2.4 0 0
2.57143 0 0
2.74286 0 0
2.91429 0 0
3.08571 0 0
3.25714 0 0
3.42857 0 0
3.6 0 0
3.77143 0 0
3.94286 0 0
4.11429 0 0
4.28571 0 0
4.45714 0 0
4.62857 0 0
4.8 0 0
4.97143 0 0
5.14286 0 0
5.31429 0 0
5.48571 0 0
5.65714 0 0
5.82857 0 0
6 0 0
0 0.2 0
0.171429 0.2 0
0.342857 0.2 0
0.514286 0.2 0
0.685714 0.2 0
0.857143 0.2 0
1.02857 0.2 0
1.2 0.2 0
1.37143 0.2 0
1.54286 0.2 0
1.71429 0.2 0
1.88571 0.2 0
2.05714 0.2 0
2.22857 0.2 0
2.4 0.2 0
2.57143 0.2 0
2.74286 0.2 0
2.91429 0.2 0
3.08571 0.2 0
3.25714 0.2 0
3.42857 0.2 0
3.6 0.2 0
3.77143 0.2 0
3.94286 0.2 0
4.11429 0.2 0
4.28571 0.2 0
4.45714 0.2 0
4.62857 0.2 0
4.8 0.2 0
4.97143 0.2 0
5.14286 0.2 0
5.31429 0.2 0
5.48571 0.2 0
5.65714 0.2 0
5.82857 0.2 0
6 0.2 0
0 0.4 0
0.171429 0.4 0
0.342857 0.4 0
0.514286 0.4 0
0.685714 0.4 0
0.857143 0.4 0
1.02857 0.4 0
1.2 0.4 0
1.37143 0.4 0
1.54286 0.4 0
1.71429 0.4 0
1.88571 0.4 0
2.05714 0.4 0
2.22857 0.4 0
2.4 0.4 0
2.57143 0.4 0
2.74286 0.4 0
2.91429 0.4 0
3.08571 0.4 0
3.25714 0.4 0
3.42857 0.4 0
3.6 0.4 0
3.77143 0.4 0
3.94286 0.4 0
4.11429 0.4 0
4.28571 0.4 0
4.45714 0.4 0
4.62857 0.4 0
4.8 0.4 0
4.97143 0.4 0
5.14286 0.4 0
5.31429 0.4 0
5.48571 0.4 0
5.65714 0.4 0
5.82857 0.4 0
6 0.4 0
0 0.6 0
0.171429 0.6 0
0.342857 0.6 0
0.514286 0.6 0
0.685714 0.6 0
0.857143 0.6 0
1.02857 0.6 0
1.2 0.6 0
1.37143 0.6 0
1.54286 0.6 0
1.71429 0.6 0
1.88571 0.6 0
2.05714 0.6 0
2.22857 0.6 0
2.4 0.6 0
2.57143 0.6 0
2.74286 0.6 0
2.91429 0.6 0
3.08571 0.6 0
3.25714 0.6 0
3.42857 0.6 0
3.6 0.6 0
3.77143 0.6 0
3.94286 0.6 0
4.11429 0.6 0
4.28571 0.6 0
4.45714 0.6 0
4.62857 0.6 0
4.8 0.6 0
4.97143 0.6 0
5.14286 0.6 0
5.31429 0.6 0
5.48571 0.6 0
5.65714 0.6 0
5.82857 0.6 0
6 0.6 0
0 0.8 0
0.171429 0.8 0
0.342857 0.8 0
0.514286 0.8 0
0.685714 0.8 0
0.857143 0.8 0
1.02857 0.8 0
1.2 0.8 0
1.37143 0.8 0
1.54286 0.8 0
1.71429 0.8 0
1.88571 0.8 0
2.05714 0.8 0
2.22857 0.8 0
2.4 0.8 0
2.57143 0.8 0
2.74286 0.8 0
2.91429 0.8 0
3.08571 0.8 0
3.25714 0.8 0
3.42857 0.8 0
3.6 0.8 0
3.77143 0.8 0
3.94286 0.8 0
4.11429 0.8 0
4.28571 0.8 0
4.45714 0.8 0
4.62857 0.8 0
4.8 0.8 0
4.97143 0.8 0
5.14286 0.8 0
5.31429 0.8 0
5.48571 0.8 0
5.65714 0.8 0
5.82857 0.8 0
6 0.8 0
0 1 0
0.171429 1 0
0.342857 1 0
0.514286 1 0
0.685714 1 0
0.857143 1 0
1.02857 1 0
1.2 1 0
1.37143 1 0
1.54286 1 0
1.71429 1 0
1.88571 1 0
2.05714 1 0
2.22857 1 0
2.4 1 0
2.57143 1 0
2.74286 1 0
2.91429 1 0
3.08571 1 0
3.25714 1 0
3.42857 1 0
3.6 1 0
3.77143 1 0
3.94286 1 0
4.11429 1 0
4.28571 1 0
4.45714 1 0
4.62857 1 0
4.8 1 0
4.97143 1 0
5.14286 1 0
5.31429 1 0
5.48571 1 0
5.65714 1 0
5.82857 1 0
6 1 0
0 1.2 0
0.171429 1.2 0
0.342857 1.2 0
0.514286 1.2 0
0.685714 1.2 0
0.857143 1.2 0
1.02857 1.2 0
1.2 1.2 0
1.37143 1.2 0
1.54286 1.2 0
1.71429 1.2 0
1.88571 1.2 0
2.05714 1.2 0
2.22857 1.2 0
2.4 1.2 0
2.57143 1.2 0
2.74286 1.2 0
2.91429 1.2 0
3.08571 1.2 0
3.25714 1.2 0
3.42857 1.2 0
3.6 1.2 0
3.77143 1.2 0
3.94286 1.2 0
4.11429 1.2 0
4.28571 1.2 0
4.45714 1.2 0
4.62857 1.2 0
4.8 1.2 0
4.97143 1.2 0
5.14286 1.2 0
5.31429 1.2 0
5.48571 1.2 0
5.65714 1.2 0
5.82857 1.2 0
6 1.2 0
0 1.4 0
0.171429 1.4 0
0.342857 1.4 0
0.514286 1.4 0
0.685714 1.4 0
0.857143 1.4 0
1.02857 1.4 0
1.2 1.4 0
1.37143 1.4 0
1.54286 1.4 0
1.71429 1.4 0
1.88571 1.4 0
2.05714 1.4 0
2.22857 1.4 0
2.4 1.4 0
2.57143 1.4 0
2.74286 1.4 0
2.91429 1.4 0
3.08571 1.4 0
3.25714 1.4 0
3.42857 1.4 0
3.6 1.4 0
3.77143 1.4 0
3.94286 1.4 0
4.11429 1.4 0
4.28571 1.4 0
4.45714 1.4 0
4.62857 1.4 0
4.8 1.4 0
4.97143 1.4 0
5.14286 1.4 0
5.31429 1.4 0
5.48571 1.4 0
5.65714 1.4 0
5.82857 1.4 0
6 1.4 0
0 1.6 0
0.171429 1.6 0
0.342857 1.6 0
0.514286 1.6 0
0.685714 1.6 0
0.857143 1.6 0
1.02857 1.6 0
1.2 1.6 0
1.37143 1.6 0
1.54286 1.6 0
1.71429 1.6 0
1.88571 1.6 0
2.05714 1.6 0
2.22857 1.6 0
2.4 1.6 0
2.57143 1.6 0
2.74286 1.6 0
2.91429 1.6 0
3.08571 1.6 0
3.25714 1.6 0
3.42857 1.6 0
3.6 1.6 0
3.77143 1.6 0
3.94286 1.6 0
4.11429 1.6 0
4.28571 1.6 0
4.45714 1.6 0
4.62857 1.6 0
4.8 1.6 0
4.97143 1.6 0
5.14286 1.6 0
5.31429 1.6 0
5.48571 1.6 0
5.65714 1.6 0
5.82857 1.6 0
6 1.6 0
0 1.8 0
0.171429 1.8 0
0.342857 1.8 0
0.514286 1.8 0
0.685714 1.8 0
0.857143 1.8 0
1.02857 1.8 0
1.2 1.8 0
1.37143 1.8 0
1.54286 1.8 0
1.71429 1.8 0
1.88571 1.8 0
2.05714 1.8 0
2.22857 1.8 0
2.4 1.8 0
2.57143 1.8 0
2.74286 1.8 0
2.91429 1.8 0
3.08571 1.8 0
3.25714 1.8 0
3.42857 1.8 0
3.6 1.8 0
3.77143 1.8 0
3.94286 1.8 0
4.11429 1.8 0
4.28571 1.8 0
4.45714 1.8 0
4.62857 1.8 0
4.8 1.8 0
4.97143 1.8 0
5.14286 1.8 0
5.31429 1.8 0
5.48571 1.8 0
5.65714 1.8 0
5.82857 1.8 0
6 1.8 0
0 2 0
0.171429 2 0
0.342857 2 0
0.514286 2 0
0.685714 2 0
0.857143 2 0
1.02857 2 0
1.2 2 0
1.37143 2 0
1.54286 2 0
1.71429 2 0
1.88571 2 0
2.05714 2 0
2.22857 2 0
2.4 2 0
2.57143 2 0
2.74286 2 0
2.91429 2 0
3.08571 2 0
3.25714 2 0
3.42857 2 0
3.6 2 0
3.77143 2 0
3.94286 2 0
4.11429 2 0
4.28571 2 0
4.45714 2 0
4.62857 2 0
4.8 2 0
4.97143 2 0
5.14286 2 0
5.31429 2 0
5.48571 2 0
5.65714 2 0
5.82857 2 0
6 2 0
0 2.2 0
0.171429 2.2 0
0.342857 2.2 0
0.514286 2.2 0
0.685714 2.2 0
0.857143 2.2 0
1.02857 2.2 0
1.2 2.2 0
1.37143 2.2 0
1.54286 2.2 0
1.71429 2.2 0
1.88571 2.2 0
2.05714 2.2 0
2.22857 2.2 0
2.4 2.2 0
2.57143 2.2 0
2.74286 2.2 0
2.91429 2.2 0
3.08571 2.2 0
3.25714 2.2 0
3.42857 2.2 0
3.6 2.2 0
3.77143 2.2 0
3.94286 2.2 0
4.11429 2.2 0
4.28571 2.2 0
4.45714 2.2 0
4.62857 2.2 0
4.8 2.2 0
4.97143 2.2 0
5.14286 2.2 0
5.31429 2.2 0
5.48571 2.2 0
5.65714 2.2 0
5.82857 2.2 0
6 2.2 0
0 2.4 0
0.171429 2.4 0
0.342857 2.4 0
0.514286 2.4 0
0.685714 2.4 0
0.857143 2.4 0
1.02857 2.4 0
1.2 2.4 0
1.37143 2.4 0
1.54286 2.4 0
1.71429 2.4 0
1.88571 2.4 0
2.05714 2.4 0
2.22857 2.4 0
2.4 2.4 0
2.57143 2.4 0
2.74286 2.4 0
2.91429 2.4 0
3.08571 2.4 0
3.25714 2.4 0
3.42857 2.4 0
3.6 2.4 0
3.77143 2.4 0
3.94286 2.4 0
4.11429 2.4 0
4.28571 2.4 0
4.45714 2.4 0
4.62857 2.4 0
4.8 2.4 0
4.97143 2.4 0
5.14286 2.4 0
5.31429 2.4 0
5.48571 2.4 0
5.65714 2.4 0
5.82857 2.4 0
6 2.4 0
0 2.6 0
0.171429 2.6 0
0.342857 2.6 0
0.514286 2.6 0
0.685714 2.6 0
0.857143 2.6 0
1.02857 2.6 0
1.2 2.6 0
1.37143 2.6 0
1.54286 2.6 0
1.71429 2.6 0
1.88571 2.6 0
2.05714 2.6 0
2.22857 2.6 0
2.4 2.6 0
2.57143 2.6 0
2.74286 2.6 0
2.91429 2.6 0
3.08571 2.6 0
3.25714 2.6 0
3.42857 2.6 0
3.6 2.6 0
3.77143 2.6 0
3.94286 2.6 0
4.11429 2.6 0
4.28571 2.6 0
4.45714 2.6 0
4.62857 2.6 0
4.8 2.6 0
4.97143 2.6 0
5.14286 2.6 0
5.31429 2.6 0
5.48571 2.6 0
5.65714 2.6 0
5.82857 2.6 0
6 2.6 0
0 2.8 0
0.171429 2.8 0
0.342857 2.8 0
0.514286 2.8 0
0.685714 2.8 0
0.857143 2.8 0
1.02857 2.8 0
1.2 2.8 0
1.37143 2.8 0
1.54286 2.8 0
1.71429 2.8 0
1.88571 2.8 0
2.05714 2.8 0
2.22857 2.8 0
2.4 2.8 0
2.57143 2.8 0
2.74286 2.8 0
2.91429 2.8 0
3.08571 2.8 0
3.25714 2.8 0
3.42857 2.8 0
3.6 2.8 0
3.77143 2.8 0
3.94286 2.8 0
4.11429 2.8 0
4.28571 2.8 0
4.45714 2.8 0
4.62857 2.8 0
4.8 2.8 0
4.97143 2.8 0
5.14286 2.8 0
5.31429 2.8 0
5.48571 2.8 0
5.65714 2.8 0
5.82857 2.8 0
6 2.8 0
0 3 0
0.171429 3 0
0.342857 3 0
0.514286 3 0
0.685714 3 0
0.857143 3 0
1.02857 3 0
1.2 3 0
1.37143 3 0
1.54286 3 0
1.71429 3 0
1.88571 3 0
2.05714 3 0
2.22857 3 0
2.4 3 0
2.57143 3 0
2.74286 3 0
2.91429 3 0
3.08571 3 0
3.25714 3 0
3.42857 3 0
3.6 3 0
3.77143 3 0
3.94286 3 0
4.11429 3 0
4.28571 3 0
4.45714 3 0
4.62857 3 0
4.8 3 0
4.97143 3 0
5.14286 3 0
5.31429 3 0
5.48571 3 0
5.65714 3 0
5.82857 3 0
6 3 0
0 3.2 0
0.171429 3.2 0
0.342857 3.2 0
0.514286 3.2 0
0.685714 3.2 0
0.857143 3.2 0
1.02857 3.2 0
1.2 3.2 0
1.37143 3.2 0
1.54286 3.2 0
1.71429 3.2 0
1.88571 3.2 0
2.05714 3.2 0
2.22857 3.2 0
2.4 3.2 0
2.57143 3.2 0
2.74286 3.2 0
2.91429 3.2 0
3.08571 3.2 0
3.25714 3.2 0
3.42857 3.2 0
3.6 3.2 0
3.77143 3.2 0
3.94286 3.2 0
4.11429 3.2 0
4.28571 3.2 0
4.45714 3.2 0
4.62857 3.2 0
4.8 3.2 0
4.97143 3.2 0
5.14286 3.2 0
5.31429 3.2 0
5.48571 3.2 0
5.65714 3.2 0
5.82857 3.2 0
6 3.2 0
0 3.4 0
0.171429 3.4 0
0.342857 3.4 0
0.514286 3.4 0
0.685714 3.4 0
0.857143 3.4 0
1.02857 3.4 0
1.2 3.4 0
1.37143 3.4 0
1.54286 3.4 0
1.71429 3.4 0
1.88571 3.4 0
2.05714 3.4 0
2.22857 3.4 0
2.4 3.4 0
2.57143 3.4 0
2.74286 3.4 0
2.91429 3.4 0
3.08571 3.4 0
3.25714 3.4 0
3.42857 3.4 0
3.6 3.4 0
3.77143 3.4 0
3.94286 3.4 0
4.11429 3.4 0
4.28571 3.4 0
4.45714 3.4 0
4.62857 3.4 0
4.8 3.4 0
4.97143 3.4 0
5.14286 3.4 0
5.31429 3.4 0
5.48571 3.4 0
5.65714 3.4 0
5.82857 3.4 0
6 3.4 0
0 3.6 0
0.171429 3.6 0
0.342857 3.6 0
0.514286 3.6 0
0.685714 3.6 0
0.857143 3.6 0
1.02857 3.6 0
1.2 3.6 0
1.37143 3.6 0
1.54286 3.6 0
1.71429 3.6 0
1.88571 3.6 0
2.05714 3.6 0
2.22857 3.6 0
2.4 3.6 0
2.57143 3.6 0
2.74286 3.6 0
2.91429 3.6 0
3.08571 3.6 0
3.25714 3.6 0
3.42857 3.6 0
3.6 3.6 0
3.77143 3.6 0
3.94286 3.6 0
4.11429 3.6 0
4.28571 3.6 0
4.45714 3.6 0
4.62857 3.6 0
4.8 3.6 0
4.97143 3.6 0
5.14286 3.6 0
5.31429 3.6 0
5.48571 3.6 0
5.65714 3.6 0
5.82857 3.6 0
6 3.6 0
0 3.8 0
0.171429 3.8 0
0.342857 3.8 0
0.514286 3.8 0
0.685714 3.8 0
0.857143 3.8 0
1.02857 3.8 0
1.2 3.8 0
1.37143 3.8 0
1.54286 3.8 0
1.71429 3.8 0
1.88571 3.8 0
2.05714 3.8 0
2.22857 3.8 0
2.4 3.8 0
2.57143 3.8 0
2.74286 3.8 0
2.91429 3.8 0
3.08571 3.8 0
3.25714 3.8 0
3.42857 3.8 0
3.6 3.8 0
3.77143 3.8 0
3.94286 3.8 0
4.11429 3.8 0
4.28571 3.8 0
4.45714 3.8 0
4.62857 3.8 0
4.8 3.8 0
4.97143 3.8 0
5.14286 3.8 0
5.31429 3.8 0
5.48571 3.8 0
5.65714 3.8 0
5.82857 3.8 0
6 3.8 0
0 4 0
0.171429 4 0
0.342857 4 0
0.514286 4 0
0.685714 4 0
0.857143 4 0
1.02857 4 0
1.2 4 0
1.37143 4 0
1.54286 4 0
1.71429 4 0
1.88571 4 0
2.05714 4 0
2.22857 4 0
2.4 4 0
2.57143 4 0
2.74286 4 0
2.91429 4 0
3.08571 4 0
3.25714 4 0
3.42857 4 0
3.6 4 0
3.77143 4 0
3.94286 4 0
4.11429 4 0
4.28571 4 0
4.45714 4 0
4.62857 4 0
4.8 4 0
4.97143 4 0
5.14286 4 0
5.31429 4 0
5.48571 4 0
5.65714 4 0
5.82857 4 0
6 4 0
0 4.2 0
0.171429 4.2 0
0.342857 4.2 0
0.514286 4.2 0
0.685714 4.2 0
0.857143 4.2 0
1.02857 4.2 0
1.2 4.2 0
1.37143 4.2 0
1.54286 4.2 0
1.71429 4.2 0
1.88571 4.2 0
2.05714 4.2 0
2.22857 4.2 0
2.4 4.2 0
2.57143 4.2 0
2.74286 4.2 0
2.91429 4.2 0
3.08571 4.2 0
3.25714 4.2 0
3.42857 4.2 0
3.6 4.2 0
3.77143 4.2 0
3.94286 4.2 0
4.11429 4.2 0
4.28571 4.2 0
4.45714 4.2 0
4.62857 4.2 0
4.8 4.2 0
4.97143 4.2 0
5.14286 4.2 0
5.31429 4.2 0
5.48571 4.2 0
5.65714 4.2 0
5.82857 4.2 0
6 4.2 0
0 4.4 0
0.171429 4.4 0
0.342857 4.4 0
0.514286 4.4 0
0.685714 4.4 0
0.857143 4.4 0
1.02857 4.4 0
1.2 4.4 0
1.37143 4.4 0
1.54286 4.4 0
1.71429 4.4 0
1.88571 4.4 0
2.05714 4.4 0
2.22857 4.4 0
2.4 4.4 0
2.57143 4.4 0
2.74286 4.4 0
2.91429 4.4 0
3.08571 4.4 0
3.25714 4.4 0
3.42857 4.4 0
3.6 4.4 0
3.77143 4.4 0
3.94286 4.4 0
4.11429 4.4 0
4.28571 4.4 0
4.45714 4.4 0
4.62857 4.4 0
4.8 4.4 0
4.97143 4.4 0
5.14286 4.4 0
5.31429 4.4 0
5.48571 4.4 0
5.65714 4.4 0
5.82857 4.4 0
6 4.4 0
0 4.6 0
0.171429 4.6 0
0.342857 4.6 0
0.514286 4.6 0
0.685714 4.6 0
0.857143 4.6 0
1.02857 4.6 0
1.2 4.6 0
1.37143 4.6 0
1.54286 4.6 0
1.71429 4.6 0
1.88571 4.6 0
2.05714 4.6 0
2.22857 4.6 0
2.4 4.6 0
2.57143 4.6 0
2.74286 4.6 0
2.91429 4.6 0
3.08571 4.6 0
3.25714 4.6 0
3.42857 4.6 0
3.6 4.6 0
3.77143 4.6 0
3.94286 4.6 0
4.11429 4.6 0
4.28571 4.6 0
4.45714 4.6 0
4.62857 4.6 0
4.8 4.6 0
4.97143 4.6 0
5.14286 4.6 0
5.31429 4.6 0
5.48571 4.6 0
5.65714 4.6 0
5.82857 4.6 0
6 4.6 0
0 4.8 0
0.171429 4.8 0
0.342857 4.8 0
0.514286 4.8 0
0.685714 4.8 0
0.857143 4.8 0
1.02857 4.8 0
1.2 4.8 0
1.37143 4.8 0
1.54286 4.8 0
1.71429 4.8 0
1.88571 4.8 0
2.05714 4.8 0
2.22857 4.8 0
2.4 4.8 0
2.57143 4.8 0
2.74286 4.8 0
2.91429 4.8 0
3.08571 4.8 0
3.25714 4.8 0
3.42857 4.8 0
3.6 4.8 0
3.77143 4.8 0
3.94286 4.8 0
4.11429 4.8 0
4.28571 4.8 0
4.45714 4.8 0
4.62857 4.8 0
4.8 4.8 0
4.97143 4.8 0
5.14286 4.8 0
5.31429 4.8 0
5.48571 4.8 0
5.65714 4.8 0
5.82857 4.8 0
6 4.8 0
0 5 0
0.171429 5 0
0.342857 5 0
0.514286 5 0
0.685714 5 0
0.857143 5 0
1.02857 5 0
1.2 5 0
1.37143 5 0
1.54286 5 0
1.71429 5 0
1.88571 5 0
2.05714 5 0
2.22857 5 0
2.4 5 0
2.57143 5 0
2.74286 5 0
2.91429 5 0
3.08571 5 0
3.25714 5 0
3.42857 5 0
3.6 5 0
3.77143 5 0
3.94286 5 0
4.11429 5 0
4.28571 5 0
4.45714 5 0
4.62857 5 0
4.8 5 0
4.97143 5 0
5.14286 5 0
5.31429 5 0
5.48571 5 0
5.65714 5 0
5.82857 5 0
6 5 0

CELL_DATA 875
SCALARS phi float
LOOKUP_TABLE default 
4.711
4.711
4.711
4.711
4.711
4.711
4.711
4.711
4.711
4.711
4.711
4.711
4.711
4.711
4.711
4.711
4.711
4.711
4.711
4.711
4.711
4.711
4.711
4.711
4.711
4.711
4.711
4.711
4.711
4.711
4.711
4.711
4.711
4.711
4.711
4.711
4.711
4.711
4.711
4.711
4.711
4.711
4.711
4.711
4.711
4.711
4.711
4.711
4.711
4.711
4.711
4.711
4.711
4.711
4.711
4.711
4.711
4.711
4.711
4.711
4.711
4.711
4.711
4.711
4.711
4.711
4.711
4.711
4.711
4.711
4.711
4.711
4.711
4.711
4.711
4.711
4.711
4.711
4.711
4.711
4.711
4.711
4.711
4.711
4.711
4.711
4.711
4.711
4.711
4.711
4.711
4.711
4.711
4.711
4.711
4.711
4.711
4.711
4.711
4.711
4.711
4.711
4.711
4.711
4.711
4.711
4.711
4.711
4.711
4.711
4.711
4.711
4.711
4.711
4.711
4.711
4.711
4.711
4.711
4.711
4.711
4.711
4.711
4.711
4.711
4.711
4.711
4.711
4.711
4.711
4.711
4.711
4.711
4.711
4.711
4.711
4.711
4.711
4.711
4.711
4.711
4.711
4.711
4.711
4.711
4.711
4.711
4.711
4.711
4.711
4.711
4.711
4.711
4.711
4.711
4.711
4.711
4.711
4.711
4.711
4.711
4.711
4.711
4.711
4.711
4.711
4.711
4.711
4.711
4.711
4.711
4.711
4.711
4.711
4.711
4.711
4.711
4.711
4.711
4.711
4.711
4.711
4.711
4.711
4.711
4.711
4.711
4.711
4.711
4.711
4.711
4.711
4.711
4.711
4.711
4.711
4.711
4.711
4.711
4.711
4.711
4.711
4.711
4.711
4.711
4.711
4.711
4.711
4.711
4.711
4.711
4.711
4.711
4.711
4.711
4.711
4.711
4.711
4.711
4.711
4.711
4.711
4.711
4.711
4.711
4.711
4.711
4.711
4.711
4.711
4.711
4.711
4.711
4.711
4.711
4.711
4.711
4.711
4.711
4.711
4.711
4.711
4.711
4.711
4.711
4.711
4.711
4.711
4.711
4.711
4.711
4.711
4.711
4.711
4.711
4.711
4.711
4.711
4.711
4.711
4.711
4.711
4.711
4.711
4.711
4.711
4.711
4.711
4.711
4.711
4.711
4.711
4.711
4.711
4.711
4.711
4.711
4.711
4.711
4.711
4.711
4.711
4.711
4.711
4.711
4.711
4.711
4.711
4.711
4.711
4.711
4.711
4.711
4.711
4.711
4.711
4.711
4.711
4.711
4.711
4.711
4.711
4.711
4.711
4.711
4.711
4.711
4.711
4.711
4.711
4.711
4.711
4.711
4.711
4.711
4.711
4.711
4.711
4.711
4.711
4.711
4.711
4.711
4.711
4.711
4.711
4.711
4.711
4.711
4.711
4.711
4.711
4.711
4.711
4.711
4.711
4.711
4.711
4.711
4.711
4.711
4.711
4.711
4.711
4.711
4.711
4.711
4.711
4.711
4.711
4.711
4.711
4.711
4.711
4.711
4.711
4.711
4.711
4.711
4.711
4.711
4.711
4.711
4.711
4.711
4.711
4.711
4.711
4.711
4.711
4.711
4.711
4.711
4.711
4.711
4.711
4.711
4.711
4.711
4.711
4.711
4.711
4.711
4.711
4.711
4.711
4.711
4.711
4.711
4.711
4.711
4.711
4.711
4.711
4.711
4.711
4.711
4.711
4.711
4.711
4.711
4.711
4.711
4.711
4.711
4.711
4.711
4.711
4.711
4.711
4.711
4.711
4.711
4.711
4.711
4.711
4.711
4.711
4.711
4.711
4.711
4.711
4.711
4.711
4.711
4.711
4.711
4.711
4.711
4.711
4.711
4.711
4.711
4.711
4.711
4.711
4.711
4.711
4.711
4.711
4.711
4.711
4.711
4.711
4.711
4.711
4.711
4.711
4.711
4.711
4.711
4.711
4.711
4.711
4.711
4.711
4.711
4.711
4.711
4.711
4.711
4.711
4.711
4.711
4.711
4.711
4.711
4.711
4.711
4.711
4.711
4.711
4.711
4.711
4.711
4.711
4.711
4.711
4.711
4.711
4.711
4.711
4.711
4.711
4.711
4.711
4.711
4.711
4.711
4.711
4.711
4.711
4.711
4.711
4.711
4.711
4.711
4.711
4.711
4.711
4.711
4.711
4.711
4.711
4.711
4.711
4.711
4.711
4.711
4.711
4.711
4.711
4.711
4.711
4.711
4.711
4.711
4.711
4.711
4.711
4.711
4.711
4.711
4.711
4.711
4.711
4.711
4.711
4.711
4.711
4.711
4.711
4.711
4.711
4.711
4.711
4.711
4.711
4.711
4.711
4.711
4.711
4.711
4.711
4.711
4.711
4.711
4.711
4.711
4.711
4.711
4.711
4.711
4.711
4.711
4.711
4.711
4.711
4.711
4.711
4.711
4.711
4.711
4.711
4.711
4.711
4.711
4.711
4.711
4.711
4.711
4.711
4.711
4.711
4.711
4.711
4.711
4.711
4.711
4.711
4.711
4.711
4.711
4.711
4.711
4.711
4.711
4.711
4.711
4.711
4.711
4.711
4.711
4.711
4.711
4.711
4.711
4.711
4.711
4.711
4.711
4.711
4.711
4.711
4.711
4.711
4.711
4.711
4.711
4.711
4.711
4.711
4.711
4.711
4.711
4.711
4.711
4.711
4.711
4.711
4.711
4.711
4.711
4.711
4.711
4.711
4.711
4.711
4.711
4.711
4.711
4.711
4.711
4.711
4.711
4.711
4.711
4.711
4.711
4.711
4.711
4.711
4.711
4.711
4.711
4.711
4.711
4.711
4.711
4.711
4.711
4.711
4.711
4.711
4.711
4.711
4.711
4.711
4.711
4.711
4.711
4.711
4.711
4.711
4.711
4.711
4.711
4.711
4.711
4.711
4.711
4.711
4.711
4.711
4.711
4.711
4.711
4.711
4.711
4.711
4.711
4.711
4.711
4.711
4.711
4.711
4.711
4.711
4.711
4.711
4.711
4.711
4.711
4.711
4.711
4.711
4.711
4.711
4.711
4.711
4.711
4.711
4.711
4.711
4.711
4.711
4.711
4.711
4.711
4.711
4.711
4.711
4.711
4.711
4.711
4.711
4.711
4.711
4.711
4.711
4.711
4.711
4.711
4.711
4.711
4.711
4.711
4.711
4.711
4.711
4.711
4.711
4.711
4.711
4.711
4.711
4.711
4.711
4.711
4.711
4.711
4.711
4.711
4.711
4.711
4.711
4.711
4.711
4.711
4.711
4.711
4.711
4.711
4.711
4.711
4.711
4.711
4.711
4.711
4.711
4.711
4.711
4.711
4.711
4.711
4.711
4.711
4.711
4.711
4.711
4.711
4.711
4.711
4.711
4.711
4.711
4.711
4.711
4.711
4.711
4.711
4.711
4.711
4.711
4.711
4.711
4.711
4.711
4.711
4.711
4.711
4.711
4.711
4.711
4.711
4.711
4.711
4.711
4.711
4.711
4.711
4.711
4.711
4.711
4.711
4.711
4.711
4.711
4.711
4.711
4.711
4.711
4.711
4.711
4.711
4.711
4.711
4.711
4.711
4.711
4.711
4.711
4.711
4.711
4.711
4.711
4.711
4.711
4.711
4.711
4.711
4.711
4.711
4.711
4.711
4.711
4.711
4.711
4.711
4.711
4.711
4.711
4.711
4.711
4.711
4.711
4.711
4.711
4.711
4.711
4.711
4.711
4.711
4.711
4.711
4.711
4.711
4.711
4.711
4.711
4.711
4.711
4.711
4.711
4.711
4.711
4.711
4.711
4.711
4.711
4.711
4.711
4.711
4.711
4.711

SCALARS p float
LOOKUP_TABLE default 
-1735.31
-1735.31
-1734.44
-1730.63
-1724.57
-1724.57
0
0
0
-5174.7
-5174.7
-5128.34
-4967.5
-4685.97
-4312.85
-3887.27
-3443.81
-3007.72
-2595.53
-2216.68
-1875.68
-1573.67
-1309.59
-1081
-884.694
-717.142
-574.731
-454.023
-351.83
-265.289
-191.883
-129.443
-76.1333
-30.3842
10
-1735.31
-1735.31
-1734.44
-1730.63
-1724.57
-1724.57
0
0
0
-5174.7
-5174.7
-5128.34
-4967.5
-4685.97
-4312.85
-3887.27
-3443.81
-3007.72
-2595.53
-2216.68
-1875.68
-1573.67
-1309.59
-1081
-884.694
-717.142
-574.731
-454.023
-351.83
-265.289
-191.883
-129.443
-76.1333
-30.3842
10
-1741.95
-1741.95
-1740.74
-1736.25
-1728.28
-1728.28
0
0
0
-5181.26
-5181.26
-5128.36
-4963.95
-4676.93
-4298.25
-3869.16
-3424.71
-2989.69
-2579.82
-2203.87
-1865.91
-1566.79
-1305.27
-1078.84
-884.265
-718.03
-576.56
-456.469
-354.622
-268.205
-194.737
-132.067
-78.3433
-31.9082
10
-1760.37
-1760.37
-1759.1
-1753.59
-1743.23
-1743.23
0
0
0
-5205.07
-5205.07
-5116.87
-4921.47
-4617.51
-4233.96
-3807.65
-3370.15
-2943.96
-2543.31
-2176.09
-1845.9
-1553.35
-1297.16
-1074.85
-883.324
-719.213
-579.101
-459.751
-358.169
-271.653
-197.815
-134.568
-80.1051
-32.8191
10
-1796.79
-1796.79
-1795.82
-1789.8
-1777.54
-1777.54
0
0
0
-5312.98
-5312.98
-5148.21
-4887.61
-4548.98
-4152.57
-3726.67
-3297.25
-2882.91
-2495.21
-2140.38
-1821.13
-1537.67
-1288.65
-1071.73
-884.005
-722.38
-583.692
-464.945
-363.349
-276.377
-201.778
-137.576
-82.0557
-33.7089
10
-1856.27
-1856.27
-1856.57
-1851.89
-1839.67
-1839.67
0
0
0
-5601.91
-5601.91
-5323.21
-4944.71
-4541.08
-4104.08
-3659.74
-3228.78
-2822.7
-2447.45
-2105.75
-1798.45
-1524.95
-1283.68
-1072.4
-888.491
-729.161
-591.565
-473
-370.923
-283.011
-207.177
-141.578
-84.6071
-34.8579
10
-1941.01
-1941.01
-1944.76
-1946.11
-1939.83
-1939.83
0
0
0
-6078.43
-6078.43
-5972.88
-5326.69
-4719.65
-4140.91
-3630.93
-3179.73
-2774.97
-2409.57
-2079.88
-1783.82
-1519.65
-1285.48
-1079.18
-898.397
-740.685
-603.526
-484.516
-381.364
-291.954
-214.364
-146.88
-88.0036
-36.4164
10
-2047.92
-2047.92
-2058.82
-2076.02
-2096.14
-2096.14
-2797.7
-2991.41
-3184.72
-3382.37
-3595.51
-3848.8
-7425.7
-5205.24
-4225.41
-3611.97
-3139.9
-2738.95
-2384.26
-2066.07
-1780.09
-1523.88
-1295.46
-1092.91
-914.196
-757.194
-619.697
-499.568
-394.747
-303.303
-223.463
-153.627
-92.3767
-38.4714
10
-2165.92
-2165.92
-2186.68
-2229.56
-2310.1
-2480.3
-2797.7
-2991.41
-3184.72
-3382.37
-3595.51
-3848.8
-5207.9
-4579.53
-3992.2
-3500.2
-3078.08
-2704.49
-2367.97
-2062.86
-1786.43
-1536.94
-1312.97
-1112.98
-935.315
-778.181
-639.663
-517.848
-410.869
-316.959
-234.475
-161.902
-97.8544
-41.1343
10
-2277
-2277
-2303.67
-2358.71
-2451.66
-2597.42
-2797.7
-2991.41
-3184.72
-3382.37
-3595.51
-3848.8
-4150.54
-4014.54
-3707.65
-3356.98
-3007.27
-2673.23
-2359.91
-2069.22
-1801.96
-1558.2
-1337.5
-1138.97
-961.381
-803.304
-663.177
-539.185
-429.631
-332.897
-247.47
-171.914
-104.743
-44.7707
10
-2366.25
-2366.25
-2394.8
-2452.53
-2543.27
-2670.14
-2828.86
-3000.08
-3176.49
-3353.46
-3525.6
-3680.15
-3779.89
-3712.29
-3517.12
-3252.93
-2959.37
-2659.66
-2366.93
-2088.49
-1828.4
-1588.44
-1369.32
-1170.82
-992.11
-831.918
-688.601
-561.103
-447.984
-347.737
-258.87
-179.977
-109.894
-47.2497
10
-2424.58
-2424.58
-2453.16
-2510.44
-2597.51
-2714.08
-2855.91
-3013.59
-3178.37
-3340.96
-3488.69
-3601.37
-3647.59
-3590.07
-3436.11
-3213.06
-2949.86
-2669.35
-2387.4
-2114.1
-1855.54
-1615.25
-1394.67
-1194.06
-1012.91
-850.318
-705.058
-575.559
-460.313
-357.843
-266.726
-185.625
-113.332
-48.6813
10
-2447.21
-2447.21
-2475.63
-2532.62
-2618.66
-2732.95
-2871.82
-3028.07
-3193.24
-3357.06
-3504.98
-3615.09
-3657.83
-3605.21
-3459.54
-3243.39
-2984.03
-2704.68
-2422.16
-2147.36
-1886.92
-1644.48
-1421.65
-1218.75
-1035.3
-870.347
-722.6
-590.621
-472.925
-368.054
-274.612
-191.294
-116.911
-50.363
10
-2432.39
-2432.39
-2461.5
-2520.05
-2609.42
-2729.86
-2877.92
-3045.11
-3223.7
-3405.32
-3578
-3722.49
-3799.71
-3754.31
-3595.24
-3357.99
-3077.83
-2781.03
-2484.8
-2199.47
-1930.89
-1682.01
-1453.94
-1246.65
-1059.41
-891.092
-740.269
-605.459
-485.141
-377.829
-282.116
-196.69
-120.363
-52.0403
10
-2380.84
-2380.84
-2410.37
-2470.41
-2565.38
-2699.54
-2870.35
-3060.39
-3264.65
-3480.78
-3704.43
-3927.16
-4115.54
-4070.65
-3858.17
-3560.09
-3229.51
-2895.36
-2572.48
-2268.14
-1985.77
-1726.59
-1490.59
-1277.02
-1084.67
-912.091
-757.639
-619.691
-496.621
-386.873
-288.983
-201.601
-123.508
-53.5845
10
-2296.59
-2296.59
-2324.39
-2382.09
-2480.07
-2634.98
-2851.52
-3071.4
-3305.31
-3563.01
-3854.76
-4229.34
-4775.94
-4643.13
-4270.35
-3844.72
-3428.01
-3037.78
-2677.95
-2348.44
-2048.24
-1775.97
-1530.05
-1308.76
-1110.29
-932.765
-774.27
-632.972
-507.097
-394.972
-295.047
-205.9
-126.255
-54.9473
10
-2188.58
-2188.58
-2210.26
-2255.29
-2339.97
-2518.95
-2851.52
-3071.4
-3305.31
-3563.01
-3854.76
-4229.34
-6551.8
-5621.49
-4816.11
-4173.66
-3643.69
-3189.17
-2789.39
-2432.99
-2113.58
-1826.99
-1570.11
-1340.29
-1135.09
-952.244
-789.501
-644.8
-516.185
-401.84
-300.097
-209.441
-128.516
-56.0879
10
-2072.12
-2072.12
-2083.53
-2101.73
-2123.08
-2123.08
-2851.52
-3071.4
-3305.31
-3854.76
-3854.76
-4229.34
-10002
-6683.97
-5281.37
-4444.32
-3829.68
-3327.36
-2895.45
-2515.35
-2177.69
-1876.81
-1608.67
-1369.98
-1157.82
-969.52
-802.529
-654.534
-523.377
-407.078
-303.833
-212.011
-130.155
-56.9404
10
-1965.89
-1965.89
-1969.87
-1971.61
-1965.72
-1965.72
0
0
0
-8462.72
-8462.72
-8545.23
-7139.28
-6128.31
-5263.45
-4552.31
-3956.1
-3442.53
-2992.07
-2593.22
-2238.87
-1923.96
-1644.42
-1396.67
-1177.44
-983.695
-812.58
-661.513
-528.114
-410.221
-305.879
-213.324
-130.98
-57.406
10
-1881.43
-1881.43
-1881.82
-1877.29
-1865.19
-1865.19
0
0
0
-7670.49
-7670.49
-7236.05
-6550.25
-5887.89
-5239.32
-4625.35
-4059.47
-3545.29
-3081.89
-2666.6
-2296.26
-1967.36
-1676.28
-1419.35
-1193.03
-993.954
-818.929
-665.09
-529.817
-410.756
-305.79
-213.018
-130.731
-57.3447
10
-1822.06
-1822.06
-1821.12
-1815.15
-1802.94
-1802.94
0
0
0
-7122.64
-7122.64
-6812.24
-6365.71
-5845.27
-5284.5
-4714.8
-4161.94
-3642.54
-3165.39
-2733.77
-2347.64
-2004.94
-1702.49
-1436.6
-1203.46
-999.358
-820.784
-664.57
-527.857
-408.096
-303.024
-210.613
-129.033
-56.5418
10
-1785.68
-1785.68
-1784.42
-1778.93
-1768.58
-1768.58
0
0
0
-6851.39
-6851.39
-6652.69
-6324.49
-5883.13
-5365.61
-4812.88
-4259.43
-3729.39
-3237.12
-2789.51
-2388.55
-2033.12
-1720.32
-1446.37
-1207.19
-998.749
-817.23
-659.187
-521.538
-401.571
-296.908
-205.449
-125.304
-54.6225
10
-1767.27
-1767.27
-1766.07
-1761.59
-1753.62
-1753.62
0
0
0
-6735.48
-6735.48
-6597.79
-6334.3
-5938.53
-5443.36
-4895.25
-4335.49
-3793.57
-3287.46
-2826.25
-2413.13
-2047.46
-1726.47
-1446.25
-1202.48
-990.857
-807.309
-648.163
-510.161
-390.469
-286.651
-196.623
-118.586
-50.8284
10
-1760.64
-1760.64
-1759.77
-1755.96
-1749.91
-1749.91
0
0
0
-6695.65
-6695.65
-6585.14
-6350.8
-5974.88
-5487.74
-4938.64
-4372.55
-3821.84
-3306.4
-2836.44
-2415.69
-2043.78
-1717.91
-1434.1
-1187.85
-974.683
-790.346
-631.015
-493.312
-374.328
-271.61
-183.154
-107.43
-43.451
10
-1760.64
-1760.64
-1759.77
-1755.96
-1749.91
-1749.91
0
0
0
-6695.65
-6695.65
-6585.14
-6350.8
-5974.88
-5487.74
-4938.64
-4372.55
-3821.84
-3306.4
-2836.44
-2415.69
-2043.78
-1717.91
-1434.1
-1187.85
-974.683
-790.346
-631.015
-493.312
-374.328
-271.61
-183.154
-107.43
-43.451
10

SCALARS  u float
LOOKUP_TABLE default 
0.3625
-0.765048
-0.782343
-0.787661
-0.79188
-0.797312
0
0
0
-2.06024
-2.5147
-2.52548
-2.52069
-2.49648
-2.45462
-2.39991
-2.33759
-2.27207
-2.20671
-2.14385
-2.08508
-2.03137
-1.98326
-1.94094
-1.90436
-1.87328
-1.84736
-1.82619
-1.80932
-1.79629
-1.78667
-1.78004
-1.77601
-1.77422
-1.77422
1.40229
-0.865802
-0.908305
-0.930692
-0.955178
-1.28679
0
0
0
-4.16207
-5.07739
-5.12871
-5.11209
-5.05134
-4.95539
-4.83493
-4.70056
-4.56095
-4.42259
-4.29016
-4.16675
-4.05428
-3.95375
-3.8655
-3.78935
-3.72474
-3.67088
-3.62681
-3.59151
-3.56395
-3.54311
-3.52803
-3.51782
-3.51184
-3.51051
2.24381
-0.466148
-0.517088
-0.53437
-0.555444
-1.08961
0
0
0
-4.15259
-4.87128
-4.76363
-4.65499
-4.54167
-4.42385
-4.30442
-4.18659
-4.07317
-3.96651
-3.86843
-3.78019
-3.70254
-3.63576
-3.57972
-3.53396
-3.49776
-3.47026
-3.45049
-3.43746
-3.43022
-3.42787
-3.42963
-3.43491
-3.4435
-3.44917
3.00363
1.20743
-0.114141
-0.159917
-0.193829
-0.913756
0
0
0
-4.06467
-4.59613
-4.38265
-4.17035
-3.99265
-3.85016
-3.73386
-3.6358
-3.55142
-3.47841
-3.41573
-3.36288
-3.31958
-3.28546
-3.26004
-3.2427
-3.2327
-3.22923
-3.23144
-3.23849
-3.24961
-3.26407
-3.28127
-3.30071
-3.32214
-3.33383
3.68351
3.32391
1.95089
1.43154
0.152289
-0.760197
0
0
0
-3.94349
-4.26203
-3.93719
-3.63576
-3.4131
-3.26404
-3.16511
-3.09604
-3.04603
-3.0094
-2.98318
-2.96572
-2.95605
-2.95341
-2.95715
-2.96661
-2.98109
-2.99994
-3.02245
-3.04799
-3.07596
-3.10581
-3.13708
-3.16936
-3.20238
-3.21956
4.28349
4.26337
4.16471
3.62405
2.17019
-0.16307
0
0
0
-3.67134
-3.71282
-3.31753
-3.01343
-2.80865
-2.6833
-2.62296
-2.59484
-2.58479
-2.58618
-2.59567
-2.61147
-2.63251
-2.65804
-2.68747
-2.72027
-2.75593
-2.79399
-2.83395
-2.87538
-2.91786
-2.96101
-3.00448
-3.04797
-3.09124
-3.11331
4.80356
4.79486
4.77282
4.69819
4.45289
1.70412
0
0
0
-3.32494
-2.77877
-2.30441
-2.19644
-2.24414
-2.16055
-2.15342
-2.17216
-2.20228
-2.23859
-2.27891
-2.32213
-2.36769
-2.41522
-2.46443
-2.51509
-2.56694
-2.61971
-2.67314
-2.72694
-2.78086
-2.83464
-2.88802
-2.94078
-2.99269
-3.01895
5.24373
5.2404
5.23686
5.22444
5.17719
4.97537
2.56945
0.951872
0.880851
-1.35843
-1.56273
-0.911934
-1.00183
-1.72202
-1.76377
-1.81897
-1.877
-1.93582
-1.99487
-2.0541
-2.11358
-2.17346
-2.23385
-2.29479
-2.35628
-2.41821
-2.48046
-2.54285
-2.60518
-2.66725
-2.72884
-2.78977
-2.8498
-2.90873
-2.93845
5.60401
5.60729
5.62403
5.6568
5.7185
5.8505
4.19391
-0.748913
-1.1732
-1.2968
-1.29257
-1.0546
-1.21319
-1.59253
-1.62595
-1.67968
-1.73736
-1.7961
-1.85564
-1.91618
-1.97787
-2.04079
-2.10495
-2.17025
-2.23652
-2.30354
-2.3711
-2.43895
-2.50684
-2.57453
-2.64178
-2.70842
-2.77423
-2.83899
-2.87161
5.88434
5.89276
5.92334
5.9797
6.07242
6.21213
6.21427
2.78798
0.706184
-1.14921
-1.17599
-1.15642
-1.25232
-1.40467
-1.4748
-1.53807
-1.59998
-1.66215
-1.72528
-1.78978
-1.85578
-1.92332
-1.99227
-2.06247
-2.13367
-2.20557
-2.27793
-2.35054
-2.42317
-2.49558
-2.56757
-2.63888
-2.70943
-2.7794
-2.81479
6.08463
6.09602
6.1332
6.19774
6.29287
6.41885
6.55435
6.45634
4.67628
2.7133
0.926863
-1.12756
-1.21594
-1.30296
-1.37405
-1.43949
-1.50312
-1.56687
-1.63168
-1.69798
-1.76578
-1.83492
-1.90519
-1.97636
-2.04818
-2.12048
-2.19291
-2.26506
-2.3367
-2.40766
-2.47786
-2.54738
-2.61628
-2.68472
-2.71937
6.20483
6.21772
6.25764
6.32478
6.41906
6.5378
6.67312
6.80593
6.87681
6.80457
5.06137
2.93159
-0.0468619
-1.23788
-1.31038
-1.37372
-1.4362
-1.49871
-1.56197
-1.6264
-1.69229
-1.75974
-1.8287
-1.89898
-1.97032
-2.04239
-2.11494
-2.18778
-2.26065
-2.33329
-2.40547
-2.47701
-2.5478
-2.61779
-2.65314
6.24493
6.25844
6.29953
6.36806
6.46324
6.582
6.71804
6.86297
7.00722
7.13534
7.20447
7.14637
3.92581
-1.08592
-1.26908
-1.33576
-1.39998
-1.46406
-1.5287
-1.5944
-1.66136
-1.72963
-1.79914
-1.8697
-1.94106
-2.01298
-2.08522
-2.15755
-2.22973
-2.30158
-2.37294
-2.44367
-2.51368
-2.58291
-2.61792
6.20485
6.21811
6.25915
6.32839
6.42616
6.5504
6.69426
6.84908
7.00765
7.16164
7.2983
7.39141
7.09473
0.24839
-1.25045
-1.32841
-1.39548
-1.46135
-1.52712
-1.59345
-1.66068
-1.72893
-1.79816
-1.86823
-1.93894
-2.01006
-2.08138
-2.15267
-2.22372
-2.29438
-2.36451
-2.434
-2.50278
-2.57083
-2.60526
6.08465
6.09666
6.13573
6.20386
6.30504
6.44076
6.59938
6.76717
6.9419
7.12306
7.30947
7.49567
7.5347
2.26288
-1.26486
-1.35723
-1.42742
-1.49471
-1.56081
-1.6267
-1.69289
-1.75966
-1.82708
-1.89512
-1.96364
-2.0325
-2.10152
-2.17051
-2.2393
-2.30776
-2.37576
-2.44322
-2.51007
-2.5763
-2.60987
5.88435
5.89348
5.92618
5.98659
6.08627
6.23821
6.41005
6.56994
6.73858
6.93641
7.17735
7.62625
7.80116
3.18343
-1.34663
-1.44244
-1.51157
-1.5769
-1.64022
-1.70266
-1.76492
-1.82743
-1.89039
-1.95388
-2.01787
-2.08226
-2.14693
-2.21175
-2.27658
-2.34129
-2.40578
-2.46998
-2.53382
-2.59728
-2.62953
5.60402
5.60788
5.62636
5.66228
5.72917
5.87652
6.01594
6.08832
6.21221
6.44988
6.71702
7.91886
8.40952
2.78771
-1.47653
-1.56293
-1.62926
-1.69223
-1.75253
-1.81114
-1.86882
-1.92612
-1.98343
-2.04099
-2.0989
-2.15723
-2.21594
-2.27498
-2.33428
-2.39377
-2.45337
-2.51302
-2.57267
-2.6323
-2.66273
5.24374
5.24077
5.2382
5.22662
5.17945
4.97463
4.23779
4.30557