# vtk DataFile Version 3.0
vtk output323
ASCII
DATASET STRUCTURED_GRID
DIMENSIONS 61 31 1
POINTS 1891 float
0 0 0
0.1 0 0
0.2 0 0
0.3 0 0
0.4 0 0
0.5 0 0
0.6 0 0
0.7 0 0
0.8 0 0
0.9 0 0
1 0 0
1.1 0 0
1.2 0 0
1.3 0 0
1.4 0 0
1.5 0 0
1.6 0 0
1.7 0 0
1.8 0 0
1.9 0 0
2 0 0
2.1 0 0
2.2 0 0
2.3 0 0
2.4 0 0
2.5 0 0
2.6 0 0
2.7 0 0
2.8 0 0
2.9 0 0
3 0 0
3.1 0 0
3.2 0 0
3.3 0 0
3.4 0 0
3.5 0 0
3.6 0 0
3.7 0 0
3.8 0 0
3.9 0 0
4 0 0
4.1 0 0
4.2 0 0
4.3 0 0
4.4 0 0
4.5 0 0
4.6 0 0
4.7 0 0
4.8 0 0
4.9 0 0
5 0 0
5.1 0 0
5.2 0 0
5.3 0 0
5.4 0 0
5.5 0 0
5.6 0 0
5.7 0 0
5.8 0 0
5.9 0 0
6 0 0
0 0.1 0
0.1 0.1 0
0.2 0.1 0
0.3 0.1 0
0.4 0.1 0
0.5 0.1 0
0.6 0.1 0
0.7 0.1 0
0.8 0.1 0
0.9 0.1 0
1 0.1 0
1.1 0.1 0
1.2 0.1 0
1.3 0.1 0
1.4 0.1 0
1.5 0.1 0
1.6 0.1 0
1.7 0.1 0
1.8 0.1 0
1.9 0.1 0
2 0.1 0
2.1 0.1 0
2.2 0.1 0
2.3 0.1 0
2.4 0.1 0
2.5 0.1 0
2.6 0.1 0
2.7 0.1 0
2.8 0.1 0
2.9 0.1 0
3 0.1 0
3.1 0.1 0
3.2 0.1 0
3.3 0.1 0
3.4 0.1 0
3.5 0.1 0
3.6 0.1 0
3.7 0.1 0
3.8 0.1 0
3.9 0.1 0
4 0.1 0
4.1 0.1 0
4.2 0.1 0
4.3 0.1 0
4.4 0.1 0
4.5 0.1 0
4.6 0.1 0
4.7 0.1 0
4.8 0.1 0
4.9 0.1 0
5 0.1 0
5.1 0.1 0
5.2 0.1 0
5.3 0.1 0
5.4 0.1 0
5.5 0.1 0
5.6 0.1 0
5.7 0.1 0
5.8 0.1 0
5.9 0.1 0
6 0.1 0
0 0.2 0
0.1 0.2 0
0.2 0.2 0
0.3 0.2 0
0.4 0.2 0
0.5 0.2 0
0.6 0.2 0
0.7 0.2 0
0.8 0.2 0
0.9 0.2 0
1 0.2 0
1.1 0.2 0
1.2 0.2 0
1.3 0.2 0
1.4 0.2 0
1.5 0.2 0
1.6 0.2 0
1.7 0.2 0
1.8 0.2 0
1.9 0.2 0
2 0.2 0
2.1 0.2 0
2.2 0.2 0
2.3 0.2 0
2.4 0.2 0
2.5 0.2 0
2.6 0.2 0
2.7 0.2 0
2.8 0.2 0
2.9 0.2 0
3 0.2 0
3.1 0.2 0
3.2 0.2 0
3.3 0.2 0
3.4 0.2 0
3.5 0.2 0
3.6 0.2 0
3.7 0.2 0
3.8 0.2 0
3.9 0.2 0
4 0.2 0
4.1 0.2 0
4.2 0.2 0
4.3 0.2 0
4.4 0.2 0
4.5 0.2 0
4.6 0.2 0
4.7 0.2 0
4.8 0.2 0
4.9 0.2 0
5 0.2 0
5.1 0.2 0
5.2 0.2 0
5.3 0.2 0
5.4 0.2 0
5.5 0.2 0
5.6 0.2 0
5.7 0.2 0
5.8 0.2 0
5.9 0.2 0
6 0.2 0
0 0.3 0
0.1 0.3 0
0.2 0.3 0
0.3 0.3 0
0.4 0.3 0
0.5 0.3 0
0.6 0.3 0
0.7 0.3 0
0.8 0.3 0
0.9 0.3 0
1 0.3 0
1.1 0.3 0
1.2 0.3 0
1.3 0.3 0
1.4 0.3 0
1.5 0.3 0
1.6 0.3 0
1.7 0.3 0
1.8 0.3 0
1.9 0.3 0
2 0.3 0
2.1 0.3 0
2.2 0.3 0
2.3 0.3 0
2.4 0.3 0
2.5 0.3 0
2.6 0.3 0
2.7 0.3 0
2.8 0.3 0
2.9 0.3 0
3 0.3 0
3.1 0.3 0
3.2 0.3 0
3.3 0.3 0
3.4 0.3 0
3.5 0.3 0
3.6 0.3 0
3.7 0.3 0
3.8 0.3 0
3.9 0.3 0
4 0.3 0
4.1 0.3 0
4.2 0.3 0
4.3 0.3 0
4.4 0.3 0
4.5 0.3 0
4.6 0.3 0
4.7 0.3 0
4.8 0.3 0
4.9 0.3 0
5 0.3 0
5.1 0.3 0
5.2 0.3 0
5.3 0.3 0
5.4 0.3 0
5.5 0.3 0
5.6 0.3 0
5.7 0.3 0
5.8 0.3 0
5.9 0.3 0
6 0.3 0
0 0.4 0
0.1 0.4 0
0.2 0.4 0
0.3 0.4 0
0.4 0.4 0
0.5 0.4 0
0.6 0.4 0
0.7 0.4 0
0.8 0.4 0
0.9 0.4 0
1 0.4 0
1.1 0.4 0
1.2 0.4 0
1.3 0.4 0
1.4 0.4 0
1.5 0.4 0
1.6 0.4 0
1.7 0.4 0
1.8 0.4 0
1.9 0.4 0
2 0.4 0
2.1 0.4 0
2.2 0.4 0
2.3 0.4 0
2.4 0.4 0
2.5 0.4 0
2.6 0.4 0
2.7 0.4 0
2.8 0.4 0
2.9 0.4 0
3 0.4 0
3.1 0.4 0
3.2 0.4 0
3.3 0.4 0
3.4 0.4 0
3.5 0.4 0
3.6 0.4 0
3.7 0.4 0
3.8 0.4 0
3.9 0.4 0
4 0.4 0
4.1 0.4 0
4.2 0.4 0
4.3 0.4 0
4.4 0.4 0
4.5 0.4 0
4.6 0.4 0
4.7 0.4 0
4.8 0.4 0
4.9 0.4 0
5 0.4 0
5.1 0.4 0
5.2 0.4 0
5.3 0.4 0
5.4 0.4 0
5.5 0.4 0
5.6 0.4 0
5.7 0.4 0
5.8 0.4 0
5.9 0.4 0
6 0.4 0
0 0.5 0
0.1 0.5 0
0.2 0.5 0
0.3 0.5 0
0.4 0.5 0
0.5 0.5 0
0.6 0.5 0
0.7 0.5 0
0.8 0.5 0
0.9 0.5 0
1 0.5 0
1.1 0.5 0
1.2 0.5 0
1.3 0.5 0
1.4 0.5 0
1.5 0.5 0
1.6 0.5 0
1.7 0.5 0
1.8 0.5 0
1.9 0.5 0
2 0.5 0
2.1 0.5 0
2.2 0.5 0
2.3 0.5 0
2.4 0.5 0
2.5 0.5 0
2.6 0.5 0
2.7 0.5 0
2.8 0.5 0
2.9 0.5 0
3 0.5 0
3.1 0.5 0
3.2 0.5 0
3.3 0.5 0
3.4 0.5 0
3.5 0.5 0
3.6 0.5 0
3.7 0.5 0
3.8 0.5 0
3.9 0.5 0
4 0.5 0
4.1 0.5 0
4.2 0.5 0
4.3 0.5 0
4.4 0.5 0
4.5 0.5 0
4.6 0.5 0
4.7 0.5 0
4.8 0.5 0
4.9 0.5 0
5 0.5 0
5.1 0.5 0
5.2 0.5 0
5.3 0.5 0
5.4 0.5 0
5.5 0.5 0
5.6 0.5 0
5.7 0.5 0
5.8 0.5 0
5.9 0.5 0
6 0.5 0
0 0.6 0
0.1 0.6 0
0.2 0.6 0
0.3 0.6 0
0.4 0.6 0
0.5 0.6 0
0.6 0.6 0
0.7 0.6 0
0.8 0.6 0
0.9 0.6 0
1 0.6 0
1.1 0.6 0
1.2 0.6 0
1.3 0.6 0
1.4 0.6 0
1.5 0.6 0
1.6 0.6 0
1.7 0.6 0
1.8 0.6 0
1.9 0.6 0
2 0.6 0
2.1 0.6 0
2.2 0.6 0
2.3 0.6 0
2.4 0.6 0
2.5 0.6 0
2.6 0.6 0
2.7 0.6 0
2.8 0.6 0
2.9 0.6 0
3 0.6 0
3.1 0.6 0
3.2 0.6 0
3.3 0.6 0
3.4 0.6 0
3.5 0.6 0
3.6 0.6 0
3.7 0.6 0
3.8 0.6 0
3.9 0.6 0
4 0.6 0
4.1 0.6 0
4.2 0.6 0
4.3 0.6 0
4.4 0.6 0
4.5 0.6 0
4.6 0.6 0
4.7 0.6 0
4.8 0.6 0
4.9 0.6 0
5 0.6 0
5.1 0.6 0
5.2 0.6 0
5.3 0.6 0
5.4 0.6 0
5.5 0.6 0
5.6 0.6 0
5.7 0.6 0
5.8 0.6 0
5.9 0.6 0
6 0.6 0
0 0.7 0
0.1 0.7 0
0.2 0.7 0
0.3 0.7 0
0.4 0.7 0
0.5 0.7 0
0.6 0.7 0
0.7 0.7 0
0.8 0.7 0
0.9 0.7 0
1 0.7 0
1.1 0.7 0
1.2 0.7 0
1.3 0.7 0
1.4 0.7 0
1.5 0.7 0
1.6 0.7 0
1.7 0.7 0
1.8 0.7 0
1.9 0.7 0
2 0.7 0
2.1 0.7 0
2.2 0.7 0
2.3 0.7 0
2.4 0.7 0
2.5 0.7 0
2.6 0.7 0
2.7 0.7 0
2.8 0.7 0
2.9 0.7 0
3 0.7 0
3.1 0.7 0
3.2 0.7 0
3.3 0.7 0
3.4 0.7 0
3.5 0.7 0
3.6 0.7 0
3.7 0.7 0
3.8 0.7 0
3.9 0.7 0
4 0.7 0
4.1 0.7 0
4.2 0.7 0
4.3 0.7 0
4.4 0.7 0
4.5 0.7 0
4.6 0.7 0
4.7 0.7 0
4.8 0.7 0
4.9 0.7 0
5 0.7 0
5.1 0.7 0
5.2 0.7 0
5.3 0.7 0
5.4 0.7 0
5.5 0.7 0
5.6 0.7 0
5.7 0.7 0
5.8 0.7 0
5.9 0.7 0
6 0.7 0
0 0.8 0
0.1 0.8 0
0.2 0.8 0
0.3 0.8 0
0.4 0.8 0
0.5 0.8 0
0.6 0.8 0
0.7 0.8 0
0.8 0.8 0
0.9 0.8 0
1 0.8 0
1.1 0.8 0
1.2 0.8 0
1.3 0.8 0
1.4 0.8 0
1.5 0.8 0
1.6 0.8 0
1.7 0.8 0
1.8 0.8 0
1.9 0.8 0
2 0.8 0
2.1 0.8 0
2.2 0.8 0
2.3 0.8 0
2.4 0.8 0
2.5 0.8 0
2.6 0.8 0
2.7 0.8 0
2.8 0.8 0
2.9 0.8 0
3 0.8 0
3.1 0.8 0
3.2 0.8 0
3.3 0.8 0
3.4 0.8 0
3.5 0.8 0
3.6 0.8 0
3.7 0.8 0
3.8 0.8 0
3.9 0.8 0
4 0.8 0
4.1 0.8 0
4.2 0.8 0
4.3 0.8 0
4.4 0.8 0
4.5 0.8 0
4.6 0.8 0
4.7 0.8 0
4.8 0.8 0
4.9 0.8 0
5 0.8 0
5.1 0.8 0
5.2 0.8 0
5.3 0.8 0
5.4 0.8 0
5.5 0.8 0
5.6 0.8 0
5.7 0.8 0
5.8 0.8 0
5.9 0.8 0
6 0.8 0
0 0.9 0
0.1 0.9 0
0.2 0.9 0
0.3 0.9 0
0.4 0.9 0
0.5 0.9 0
0.6 0.9 0
0.7 0.9 0
0.8 0.9 0
0.9 0.9 0
1 0.9 0
1.1 0.9 0
1.2 0.9 0
1.3 0.9 0
1.4 0.9 0
1.5 0.9 0
1.6 0.9 0
1.7 0.9 0
1.8 0.9 0
1.9 0.9 0
2 0.9 0
2.1 0.9 0
2.2 0.9 0
2.3 0.9 0
2.4 0.9 0
2.5 0.9 0
2.6 0.9 0
2.7 0.9 0
2.8 0.9 0
2.9 0.9 0
3 0.9 0
3.1 0.9 0
3.2 0.9 0
3.3 0.9 0
3.4 0.9 0
3.5 0.9 0
3.6 0.9 0
3.7 0.9 0
3.8 0.9 0
3.9 0.9 0
4 0.9 0
4.1 0.9 0
4.2 0.9 0
4.3 0.9 0
4.4 0.9 0
4.5 0.9 0
4.6 0.9 0
4.7 0.9 0
4.8 0.9 0
4.9 0.9 0
5 0.9 0
5.1 0.9 0
5.2 0.9 0
5.3 0.9 0
5.4 0.9 0
5.5 0.9 0
5.6 0.9 0
5.7 0.9 0
5.8 0.9 0
5.9 0.9 0
6 0.9 0
0 1 0
0.1 1 0
0.2 1 0
0.3 1 0
0.4 1 0
0.5 1 0
0.6 1 0
0.7 1 0
0.8 1 0
0.9 1 0
1 1 0
1.1 1 0
1.2 1 0
1.3 1 0
1.4 1 0
1.5 1 0
1.6 1 0
1.7 1 0
1.8 1 0
1.9 1 0
2 1 0
2.1 1 0
2.2 1 0
2.3 1 0
2.4 1 0
2.5 1 0
2.6 1 0
2.7 1 0
2.8 1 0
2.9 1 0
3 1 0
3.1 1 0
3.2 1 0
3.3 1 0
3.4 1 0
3.5 1 0
3.6 1 0
3.7 1 0
3.8 1 0
3.9 1 0
4 1 0
4.1 1 0
4.2 1 0
4.3 1 0
4.4 1 0
4.5 1 0
4.6 1 0
4.7 1 0
4.8 1 0
4.9 1 0
5 1 0
5.1 1 0
5.2 1 0
5.3 1 0
5.4 1 0
5.5 1 0
5.6 1 0
5.7 1 0
5.8 1 0
5.9 1 0
6 1 0
0 1.1 0
0.1 1.1 0
0.2 1.1 0
0.3 1.1 0
0.4 1.1 0
0.5 1.1 0
0.6 1.1 0
0.7 1.1 0
0.8 1.1 0
0.9 1.1 0
1 1.1 0
1.1 1.1 0
1.2 1.1 0
1.3 1.1 0
1.4 1.1 0
1.5 1.1 0
1.6 1.1 0
1.7 1.1 0
1.8 1.1 0
1.9 1.1 0
2 1.1 0
2.1 1.1 0
2.2 1.1 0
2.3 1.1 0
2.4 1.1 0
2.5 1.1 0
2.6 1.1 0
2.7 1.1 0
2.8 1.1 0
2.9 1.1 0
3 1.1 0
3.1 1.1 0
3.2 1.1 0
3.3 1.1 0
3.4 1.1 0
3.5 1.1 0
3.6 1.1 0
3.7 1.1 0
3.8 1.1 0
3.9 1.1 0
4 1.1 0
4.1 1.1 0
4.2 1.1 0
4.3 1.1 0
4.4 1.1 0
4.5 1.1 0
4.6 1.1 0
4.7 1.1 0
4.8 1.1 0
4.9 1.1 0
5 1.1 0
5.1 1.1 0
5.2 1.1 0
5.3 1.1 0
5.4 1.1 0
5.5 1.1 0
5.6 1.1 0
5.7 1.1 0
5.8 1.1 0
5.9 1.1 0
6 1.1 0
0 1.2 0
0.1 1.2 0
0.2 1.2 0
0.3 1.2 0
0.4 1.2 0
0.5 1.2 0
0.6 1.2 0
0.7 1.2 0
0.8 1.2 0
0.9 1.2 0
1 1.2 0
1.1 1.2 0
1.2 1.2 0
1.3 1.2 0
1.4 1.2 0
1.5 1.2 0
1.6 1.2 0
1.7 1.2 0
1.8 1.2 0
1.9 1.2 0
2 1.2 0
2.1 1.2 0
2.2 1.2 0
2.3 1.2 0
2.4 1.2 0
2.5 1.2 0
2.6 1.2 0
2.7 1.2 0
2.8 1.2 0
2.9 1.2 0
3 1.2 0
3.1 1.2 0
3.2 1.2 0
3.3 1.2 0
3.4 1.2 0
3.5 1.2 0
3.6 1.2 0
3.7 1.2 0
3.8 1.2 0
3.9 1.2 0
4 1.2 0
4.1 1.2 0
4.2 1.2 0
4.3 1.2 0
4.4 1.2 0
4.5 1.2 0
4.6 1.2 0
4.7 1.2 0
4.8 1.2 0
4.9 1.2 0
5 1.2 0
5.1 1.2 0
5.2 1.2 0
5.3 1.2 0
5.4 1.2 0
5.5 1.2 0
5.6 1.2 0
5.7 1.2 0
5.8 1.2 0
5.9 1.2 0
6 1.2 0
0 1.3 0
0.1 1.3 0
0.2 1.3 0
0.3 1.3 0
0.4 1.3 0
0.5 1.3 0
0.6 1.3 0
0.7 1.3 0
0.8 1.3 0
0.9 1.3 0
1 1.3 0
1.1 1.3 0
1.2 1.3 0
1.3 1.3 0
1.4 1.3 0
1.5 1.3 0
1.6 1.3 0
1.7 1.3 0
1.8 1.3 0
1.9 1.3 0
2 1.3 0
2.1 1.3 0
2.2 1.3 0
2.3 1.3 0
2.4 1.3 0
2.5 1.3 0
2.6 1.3 0
2.7 1.3 0
2.8 1.3 0
2.9 1.3 0
3 1.3 0
3.1 1.3 0
3.2 1.3 0
3.3 1.3 0
3.4 1.3 0
3.5 1.3 0
3.6 1.3 0
3.7 1.3 0
3.8 1.3 0
3.9 1.3 0
4 1.3 0
4.1 1.3 0
4.2 1.3 0
4.3 1.3 0
4.4 1.3 0
4.5 1.3 0
4.6 1.3 0
4.7 1.3 0
4.8 1.3 0
4.9 1.3 0
5 1.3 0
5.1 1.3 0
5.2 1.3 0
5.3 1.3 0
5.4 1.3 0
5.5 1.3 0
5.6 1.3 0
5.7 1.3 0
5.8 1.3 0
5.9 1.3 0
6 1.3 0
0 1.4 0
0.1 1.4 0
0.2 1.4 0
0.3 1.4 0
0.4 1.4 0
0.5 1.4 0
0.6 1.4 0
0.7 1.4 0
0.8 1.4 0
0.9 1.4 0
1 1.4 0
1.1 1.4 0
1.2 1.4 0
1.3 1.4 0
1.4 1.4 0
1.5 1.4 0
1.6 1.4 0
1.7 1.4 0
1.8 1.4 0
1.9 1.4 0
2 1.4 0
2.1 1.4 0
2.2 1.4 0
2.3 1.4 0
2.4 1.4 0
2.5 1.4 0
2.6 1.4 0
2.7 1.4 0
2.8 1.4 0
2.9 1.4 0
3 1.4 0
3.1 1.4 0
3.2 1.4 0
3.3 1.4 0
3.4 1.4 0
3.5 1.4 0
3.6 1.4 0
3.7 1.4 0
3.8 1.4 0
3.9 1.4 0
4 1.4 0
4.1 1.4 0
4.2 1.4 0
4.3 1.4 0
4.4 1.4 0
4.5 1.4 0
4.6 1.4 0
4.7 1.4 0
4.8 1.4 0
4.9 1.4 0
5 1.4 0
5.1 1.4 0
5.2 1.4 0
5.3 1.4 0
5.4 1.4 0
5.5 1.4 0
5.6 1.4 0
5.7 1.4 0
5.8 1.4 0
5.9 1.4 0
6 1.4 0
0 1.5 0
0.1 1.5 0
0.2 1.5 0
0.3 1.5 0
0.4 1.5 0
0.5 1.5 0
0.6 1.5 0
0.7 1.5 0
0.8 1.5 0
0.9 1.5 0
1 1.5 0
1.1 1.5 0
1.2 1.5 0
1.3 1.5 0
1.4 1.5 0
1.5 1.5 0
1.6 1.5 0
1.7 1.5 0
1.8 1.5 0
1.9 1.5 0
2 1.5 0
2.1 1.5 0
2.2 1.5 0
2.3 1.5 0
2.4 1.5 0
2.5 1.5 0
2.6 1.5 0
2.7 1.5 0
2.8 1.5 0
2.9 1.5 0
3 1.5 0
3.1 1.5 0
3.2 1.5 0
3.3 1.5 0
3.4 1.5 0
3.5 1.5 0
3.6 1.5 0
3.7 1.5 0
3.8 1.5 0
3.9 1.5 0
4 1.5 0
4.1 1.5 0
4.2 1.5 0
4.3 1.5 0
4.4 1.5 0
4.5 1.5 0
4.6 1.5 0
4.7 1.5 0
4.8 1.5 0
4.9 1.5 0
5 1.5 0
5.1 1.5 0
5.2 1.5 0
5.3 1.5 0
5.4 1.5 0
5.5 1.5 0
5.6 1.5 0
5.7 1.5 0
5.8 1.5 0
5.9 1.5 0
6 1.5 0
0 1.6 0
0.1 1.6 0
0.2 1.6 0
0.3 1.6 0
0.4 1.6 0
0.5 1.6 0
0.6 1.6 0
0.7 1.6 0
0.8 1.6 0
0.9 1.6 0
1 1.6 0
1.1 1.6 0
1.2 1.6 0
1.3 1.6 0
1.4 1.6 0
1.5 1.6 0
1.6 1.6 0
1.7 1.6 0
1.8 1.6 0
1.9 1.6 0
2 1.6 0
2.1 1.6 0
2.2 1.6 0
2.3 1.6 0
2.4 1.6 0
2.5 1.6 0
2.6 1.6 0
2.7 1.6 0
2.8 1.6 0
2.9 1.6 0
3 1.6 0
3.1 1.6 0
3.2 1.6 0
3.3 1.6 0
3.4 1.6 0
3.5 1.6 0
3.6 1.6 0
3.7 1.6 0
3.8 1.6 0
3.9 1.6 0
4 1.6 0
4.1 1.6 0
4.2 1.6 0
4.3 1.6 0
4.4 1.6 0
4.5 1.6 0
4.6 1.6 0
4.7 1.6 0
4.8 1.6 0
4.9 1.6 0
5 1.6 0
5.1 1.6 0
5.2 1.6 0
5.3 1.6 0
5.4 1.6 0
5.5 1.6 0
5.6 1.6 0
5.7 1.6 0
5.8 1.6 0
5.9 1.6 0
6 1.6 0
0 1.7 0
0.1 1.7 0
0.2 1.7 0
0.3 1.7 0
0.4 1.7 0
0.5 1.7 0
0.6 1.7 0
0.7 1.7 0
0.8 1.7 0
0.9 1.7 0
1 1.7 0
1.1 1.7 0
1.2 1.7 0
1.3 1.7 0
1.4 1.7 0
1.5 1.7 0
1.6 1.7 0
1.7 1.7 0
1.8 1.7 0
1.9 1.7 0
2 1.7 0
2.1 1.7 0
2.2 1.7 0
2.3 1.7 0
2.4 1.7 0
2.5 1.7 0
2.6 1.7 0
2.7 1.7 0
2.8 1.7 0
2.9 1.7 0
3 1.7 0
3.1 1.7 0
3.2 1.7 0
3.3 1.7 0
3.4 1.7 0
3.5 1.7 0
3.6 1.7 0
3.7 1.7 0
3.8 1.7 0
3.9 1.7 0
4 1.7 0
4.1 1.7 0
4.2 1.7 0
4.3 1.7 0
4.4 1.7 0
4.5 1.7 0
4.6 1.7 0
4.7 1.7 0
4.8 1.7 0
4.9 1.7 0
5 1.7 0
5.1 1.7 0
5.2 1.7 0
5.3 1.7 0
5.4 1.7 0
5.5 1.7 0
5.6 1.7 0
5.7 1.7 0
5.8 1.7 0
5.9 1.7 0
6 1.7 0
0 1.8 0
0.1 1.8 0
0.2 1.8 0
0.3 1.8 0
0.4 1.8 0
0.5 1.8 0
0.6 1.8 0
0.7 1.8 0
0.8 1.8 0
0.9 1.8 0
1 1.8 0
1.1 1.8 0
1.2 1.8 0
1.3 1.8 0
1.4 1.8 0
1.5 1.8 0
1.6 1.8 0
1.7 1.8 0
1.8 1.8 0
1.9 1.8 0
2 1.8 0
2.1 1.8 0
2.2 1.8 0
2.3 1.8 0
2.4 1.8 0
2.5 1.8 0
2.6 1.8 0
2.7 1.8 0
2.8 1.8 0
2.9 1.8 0
3 1.8 0
3.1 1.8 0
3.2 1.8 0
3.3 1.8 0
3.4 1.8 0
3.5 1.8 0
3.6 1.8 0
3.7 1.8 0
3.8 1.8 0
3.9 1.8 0
4 1.8 0
4.1 1.8 0
4.2 1.8 0
4.3 1.8 0
4.4 1.8 0
4.5 1.8 0
4.6 1.8 0
4.7 1.8 0
4.8 1.8 0
4.9 1.8 0
5 1.8 0
5.1 1.8 0
5.2 1.8 0
5.3 1.8 0
5.4 1.8 0
5.5 1.8 0
5.6 1.8 0
5.7 1.8 0
5.8 1.8 0
5.9 1.8 0
6 1.8 0
0 1.9 0
0.1 1.9 0
0.2 1.9 0
0.3 1.9 0
0.4 1.9 0
0.5 1.9 0
0.6 1.9 0
0.7 1.9 0
0.8 1.9 0
0.9 1.9 0
1 1.9 0
1.1 1.9 0
1.2 1.9 0
1.3 1.9 0
1.4 1.9 0
1.5 1.9 0
1.6 1.9 0
1.7 1.9 0
1.8 1.9 0
1.9 1.9 0
2 1.9 0
2.1 1.9 0
2.2 1.9 0
2.3 1.9 0
2.4 1.9 0
2.5 1.9 0
2.6 1.9 0
2.7 1.9 0
2.8 1.9 0
2.9 1.9 0
3 1.9 0
3.1 1.9 0
3.2 1.9 0
3.3 1.9 0
3.4 1.9 0
3.5 1.9 0
3.6 1.9 0
3.7 1.9 0
3.8 1.9 0
3.9 1.9 0
4 1.9 0
4.1 1.9 0
4.2 1.9 0
4.3 1.9 0
4.4 1.9 0
4.5 1.9 0
4.6 1.9 0
4.7 1.9 0
4.8 1.9 0
4.9 1.9 0
5 1.9 0
5.1 1.9 0
5.2 1.9 0
5.3 1.9 0
5.4 1.9 0
5.5 1.9 0
5.6 1.9 0
5.7 1.9 0
5.8 1.9 0
5.9 1.9 0
6 1.9 0
0 2 0
0.1 2 0
0.2 2 0
0.3 2 0
0.4 2 0
0.5 2 0
0.6 2 0
0.7 2 0
0.8 2 0
0.9 2 0
1 2 0
1.1 2 0
1.2 2 0
1.3 2 0
1.4 2 0
1.5 2 0
1.6 2 0
1.7 2 0
1.8 2 0
1.9 2 0
2 2 0
2.1 2 0
2.2 2 0
2.3 2 0
2.4 2 0
2.5 2 0
2.6 2 0
2.7 2 0
2.8 2 0
2.9 2 0
3 2 0
3.1 2 0
3.2 2 0
3.3 2 0
3.4 2 0
3.5 2 0
3.6 2 0
3.7 2 0
3.8 2 0
3.9 2 0
4 2 0
4.1 2 0
4.2 2 0
4.3 2 0
4.4 2 0
4.5 2 0
4.6 2 0
4.7 2 0
4.8 2 0
4.9 2 0
5 2 0
5.1 2 0
5.2 2 0
5.3 2 0
5.4 2 0
5.5 2 0
5.6 2 0
5.7 2 0
5.8 2 0
5.9 2 0
6 2 0
0 2.1 0
0.1 2.1 0
0.2 2.1 0
0.3 2.1 0
0.4 2.1 0
0.5 2.1 0
0.6 2.1 0
0.7 2.1 0
0.8 2.1 0
0.9 2.1 0
1 2.1 0
1.1 2.1 0
1.2 2.1 0
1.3 2.1 0
1.4 2.1 0
1.5 2.1 0
1.6 2.1 0
1.7 2.1 0
1.8 2.1 0
1.9 2.1 0
2 2.1 0
2.1 2.1 0
2.2 2.1 0
2.3 2.1 0
2.4 2.1 0
2.5 2.1 0
2.6 2.1 0
2.7 2.1 0
2.8 2.1 0
2.9 2.1 0
3 2.1 0
3.1 2.1 0
3.2 2.1 0
3.3 2.1 0
3.4 2.1 0
3.5 2.1 0
3.6 2.1 0
3.7 2.1 0
3.8 2.1 0
3.9 2.1 0
4 2.1 0
4.1 2.1 0
4.2 2.1 0
4.3 2.1 0
4.4 2.1 0
4.5 2.1 0
4.6 2.1 0
4.7 2.1 0
4.8 2.1 0
4.9 2.1 0
5 2.1 0
5.1 2.1 0
5.2 2.1 0
5.3 2.1 0
5.4 2.1 0
5.5 2.1 0
5.6 2.1 0
5.7 2.1 0
5.8 2.1 0
5.9 2.1 0
6 2.1 0
0 2.2 0
0.1 2.2 0
0.2 2.2 0
0.3 2.2 0
0.4 2.2 0
0.5 2.2 0
0.6 2.2 0
0.7 2.2 0
0.8 2.2 0
0.9 2.2 0
1 2.2 0
1.1 2.2 0
1.2 2.2 0
1.3 2.2 0
1.4 2.2 0
1.5 2.2 0
1.6 2.2 0
1.7 2.2 0
1.8 2.2 0
1.9 2.2 0
2 2.2 0
2.1 2.2 0
2.2 2.2 0
2.3 2.2 0
2.4 2.2 0
2.5 2.2 0
2.6 2.2 0
2.7 2.2 0
2.8 2.2 0
2.9 2.2 0
3 2.2 0
3.1 2.2 0
3.2 2.2 0
3.3 2.2 0
3.4 2.2 0
3.5 2.2 0
3.6 2.2 0
3.7 2.2 0
3.8 2.2 0
3.9 2.2 0
4 2.2 0
4.1 2.2 0
4.2 2.2 0
4.3 2.2 0
4.4 2.2 0
4.5 2.2 0
4.6 2.2 0
4.7 2.2 0
4.8 2.2 0
4.9 2.2 0
5 2.2 0
5.1 2.2 0
5.2 2.2 0
5.3 2.2 0
5.4 2.2 0
5.5 2.2 0
5.6 2.2 0
5.7 2.2 0
5.8 2.2 0
5.9 2.2 0
6 2.2 0
0 2.3 0
0.1 2.3 0
0.2 2.3 0
0.3 2.3 0
0.4 2.3 0
0.5 2.3 0
0.6 2.3 0
0.7 2.3 0
0.8 2.3 0
0.9 2.3 0
1 2.3 0
1.1 2.3 0
1.2 2.3 0
1.3 2.3 0
1.4 2.3 0
1.5 2.3 0
1.6 2.3 0
1.7 2.3 0
1.8 2.3 0
1.9 2.3 0
2 2.3 0
2.1 2.3 0
2.2 2.3 0
2.3 2.3 0
2.4 2.3 0
2.5 2.3 0
2.6 2.3 0
2.7 2.3 0
2.8 2.3 0
2.9 2.3 0
3 2.3 0
3.1 2.3 0
3.2 2.3 0
3.3 2.3 0
3.4 2.3 0
3.5 2.3 0
3.6 2.3 0
3.7 2.3 0
3.8 2.3 0
3.9 2.3 0
4 2.3 0
4.1 2.3 0
4.2 2.3 0
4.3 2.3 0
4.4 2.3 0
4.5 2.3 0
4.6 2.3 0
4.7 2.3 0
4.8 2.3 0
4.9 2.3 0
5 2.3 0
5.1 2.3 0
5.2 2.3 0
5.3 2.3 0
5.4 2.3 0
5.5 2.3 0
5.6 2.3 0
5.7 2.3 0
5.8 2.3 0
5.9 2.3 0
6 2.3 0
0 2.4 0
0.1 2.4 0
0.2 2.4 0
0.3 2.4 0
0.4 2.4 0
0.5 2.4 0
0.6 2.4 0
0.7 2.4 0
0.8 2.4 0
0.9 2.4 0
1 2.4 0
1.1 2.4 0
1.2 2.4 0
1.3 2.4 0
1.4 2.4 0
1.5 2.4 0
1.6 2.4 0
1.7 2.4 0
1.8 2.4 0
1.9 2.4 0
2 2.4 0
2.1 2.4 0
2.2 2.4 0
2.3 2.4 0
2.4 2.4 0
2.5 2.4 0
2.6 2.4 0
2.7 2.4 0
2.8 2.4 0
2.9 2.4 0
3 2.4 0
3.1 2.4 0
3.2 2.4 0
3.3 2.4 0
3.4 2.4 0
3.5 2.4 0
3.6 2.4 0
3.7 2.4 0
3.8 2.4 0
3.9 2.4 0
4 2.4 0
4.1 2.4 0
4.2 2.4 0
4.3 2.4 0
4.4 2.4 0
4.5 2.4 0
4.6 2.4 0
4.7 2.4 0
4.8 2.4 0
4.9 2.4 0
5 2.4 0
5.1 2.4 0
5.2 2.4 0
5.3 2.4 0
5.4 2.4 0
5.5 2.4 0
5.6 2.4 0
5.7 2.4 0
5.8 2.4 0
5.9 2.4 0
6 2.4 0
0 2.5 0
0.1 2.5 0
0.2 2.5 0
0.3 2.5 0
0.4 2.5 0
0.5 2.5 0
0.6 2.5 0
0.7 2.5 0
0.8 2.5 0
0.9 2.5 0
1 2.5 0
1.1 2.5 0
1.2 2.5 0
1.3 2.5 0
1.4 2.5 0
1.5 2.5 0
1.6 2.5 0
1.7 2.5 0
1.8 2.5 0
1.9 2.5 0
2 2.5 0
2.1 2.5 0
2.2 2.5 0
2.3 2.5 0
2.4 2.5 0
2.5 2.5 0
2.6 2.5 0
2.7 2.5 0
2.8 2.5 0
2.9 2.5 0
3 2.5 0
3.1 2.5 0
3.2 2.5 0
3.3 2.5 0
3.4 2.5 0
3.5 2.5 0
3.6 2.5 0
3.7 2.5 0
3.8 2.5 0
3.9 2.5 0
4 2.5 0
4.1 2.5 0
4.2 2.5 0
4.3 2.5 0
4.4 2.5 0
4.5 2.5 0
4.6 2.5 0
4.7 2.5 0
4.8 2.5 0
4.9 2.5 0
5 2.5 0
5.1 2.5 0
5.2 2.5 0
5.3 2.5 0
5.4 2.5 0
5.5 2.5 0
5.6 2.5 0
5.7 2.5 0
5.8 2.5 0
5.9 2.5 0
6 2.5 0
0 2.6 0
0.1 2.6 0
0.2 2.6 0
0.3 2.6 0
0.4 2.6 0
0.5 2.6 0
0.6 2.6 0
0.7 2.6 0
0.8 2.6 0
0.9 2.6 0
1 2.6 0
1.1 2.6 0
1.2 2.6 0
1.3 2.6 0
1.4 2.6 0
1.5 2.6 0
1.6 2.6 0
1.7 2.6 0
1.8 2.6 0
1.9 2.6 0
2 2.6 0
2.1 2.6 0
2.2 2.6 0
2.3 2.6 0
2.4 2.6 0
2.5 2.6 0
2.6 2.6 0
2.7 2.6 0
2.8 2.6 0
2.9 2.6 0
3 2.6 0
3.1 2.6 0
3.2 2.6 0
3.3 2.6 0
3.4 2.6 0
3.5 2.6 0
3.6 2.6 0
3.7 2.6 0
3.8 2.6 0
3.9 2.6 0
4 2.6 0
4.1 2.6 0
4.2 2.6 0
4.3 2.6 0
4.4 2.6 0
4.5 2.6 0
4.6 2.6 0
4.7 2.6 0
4.8 2.6 0
4.9 2.6 0
5 2.6 0
5.1 2.6 0
5.2 2.6 0
5.3 2.6 0
5.4 2.6 0
5.5 2.6 0
5.6 2.6 0
5.7 2.6 0
5.8 2.6 0
5.9 2.6 0
6 2.6 0
0 2.7 0
0.1 2.7 0
0.2 2.7 0
0.3 2.7 0
0.4 2.7 0
0.5 2.7 0
0.6 2.7 0
0.7 2.7 0
0.8 2.7 0
0.9 2.7 0
1 2.7 0
1.1 2.7 0
1.2 2.7 0
1.3 2.7 0
1.4 2.7 0
1.5 2.7 0
1.6 2.7 0
1.7 2.7 0
1.8 2.7 0
1.9 2.7 0
2 2.7 0
2.1 2.7 0
2.2 2.7 0
2.3 2.7 0
2.4 2.7 0
2.5 2.7 0
2.6 2.7 0
2.7 2.7 0
2.8 2.7 0
2.9 2.7 0
3 2.7 0
3.1 2.7 0
3.2 2.7 0
3.3 2.7 0
3.4 2.7 0
3.5 2.7 0
3.6 2.7 0
3.7 2.7 0
3.8 2.7 0
3.9 2.7 0
4 2.7 0
4.1 2.7 0
4.2 2.7 0
4.3 2.7 0
4.4 2.7 0
4.5 2.7 0
4.6 2.7 0
4.7 2.7 0
4.8 2.7 0
4.9 2.7 0
5 2.7 0
5.1 2.7 0
5.2 2.7 0
5.3 2.7 0
5.4 2.7 0
5.5 2.7 0
5.6 2.7 0
5.7 2.7 0
5.8 2.7 0
5.9 2.7 0
6 2.7 0
0 2.8 0
0.1 2.8 0
0.2 2.8 0
0.3 2.8 0
0.4 2.8 0
0.5 2.8 0
0.6 2.8 0
0.7 2.8 0
0.8 2.8 0
0.9 2.8 0
1 2.8 0
1.1 2.8 0
1.2 2.8 0
1.3 2.8 0
1.4 2.8 0
1.5 2.8 0
1.6 2.8 0
1.7 2.8 0
1.8 2.8 0
1.9 2.8 0
2 2.8 0
2.1 2.8 0
2.2 2.8 0
2.3 2.8 0
2.4 2.8 0
2.5 2.8 0
2.6 2.8 0
2.7 2.8 0
2.8 2.8 0
2.9 2.8 0
3 2.8 0
3.1 2.8 0
3.2 2.8 0
3.3 2.8 0
3.4 2.8 0
3.5 2.8 0
3.6 2.8 0
3.7 2.8 0
3.8 2.8 0
3.9 2.8 0
4 2.8 0
4.1 2.8 0
4.2 2.8 0
4.3 2.8 0
4.4 2.8 0
4.5 2.8 0
4.6 2.8 0
4.7 2.8 0
4.8 2.8 0
4.9 2.8 0
5 2.8 0
5.1 2.8 0
5.2 2.8 0
5.3 2.8 0
5.4 2.8 0
5.5 2.8 0
5.6 2.8 0
5.7 2.8 0
5.8 2.8 0
5.9 2.8 0
6 2.8 0
0 2.9 0
0.1 2.9 0
0.2 2.9 0
0.3 2.9 0
0.4 2.9 0
0.5 2.9 0
0.6 2.9 0
0.7 2.9 0
0.8 2.9 0
0.9 2.9 0
1 2.9 0
1.1 2.9 0
1.2 2.9 0
1.3 2.9 0
1.4 2.9 0
1.5 2.9 0
1.6 2.9 0
1.7 2.9 0
1.8 2.9 0
1.9 2.9 0
2 2.9 0
2.1 2.9 0
2.2 2.9 0
2.3 2.9 0
2.4 2.9 0
2.5 2.9 0
2.6 2.9 0
2.7 2.9 0
2.8 2.9 0
2.9 2.9 0
3 2.9 0
3.1 2.9 0
3.2 2.9 0
3.3 2.9 0
3.4 2.9 0
3.5 2.9 0
3.6 2.9 0
3.7 2.9 0
3.8 2.9 0
3.9 2.9 0
4 2.9 0
4.1 2.9 0
4.2 2.9 0
4.3 2.9 0
4.4 2.9 0
4.5 2.9 0
4.6 2.9 0
4.7 2.9 0
4.8 2.9 0
4.9 2.9 0
5 2.9 0
5.1 2.9 0
5.2 2.9 0
5.3 2.9 0
5.4 2.9 0
5.5 2.9 0
5.6 2.9 0
5.7 2.9 0
5.8 2.9 0
5.9 2.9 0
6 2.9 0
0 3 0
0.1 3 0
0.2 3 0
0.3 3 0
0.4 3 0
0.5 3 0
0.6 3 0
0.7 3 0
0.8 3 0
0.9 3 0
1 3 0
1.1 3 0
1.2 3 0
1.3 3 0
1.4 3 0
1.5 3 0
1.6 3 0
1.7 3 0
1.8 3 0
1.9 3 0
2 3 0
2.1 3 0
2.2 3 0
2.3 3 0
2.4 3 0
2.5 3 0
2.6 3 0
2.7 3 0
2.8 3 0
2.9 3 0
3 3 0
3.1 3 0
3.2 3 0
3.3 3 0
3.4 3 0
3.5 3 0
3.6 3 0
3.7 3 0
3.8 3 0
3.9 3 0
4 3 0
4.1 3 0
4.2 3 0
4.3 3 0
4.4 3 0
4.5 3 0
4.6 3 0
4.7 3 0
4.8 3 0
4.9 3 0
5 3 0
5.1 3 0
5.2 3 0
5.3 3 0
5.4 3 0
5.5 3 0
5.6 3 0
5.7 3 0
5.8 3 0
5.9 3 0
6 3 0

CELL_DATA 1800
SCALARS phi float
LOOKUP_TABLE default 
4.711
4.711
4.711
4.711
4.711
4.711
4.711
4.711
4.711
4.711
4.711
4.711
4.711
4.711
4.711
4.711
4.711
4.711
4.711
4.711
4.711
4.711
4.711
4.711
4.711
4.711
4.711
4.711
4.711
4.711
4.711
4.711
4.711
4.711
4.711
4.711
4.711
4.711
4.711
4.711
4.711
4.711
4.711
4.711
4.711
4.711
4.711
4.711
4.711
4.711
4.711
4.711
4.711
4.711
4.711
4.711
4.711
4.711
4.711
4.711
4.711
4.711
4.711
4.711
4.711
4.711
4.711
4.711
4.711
4.711
4.711
4.711
4.711
4.711
4.711
4.711
4.711
4.711
4.711
4.711
4.711
4.711
4.711
4.711
4.711
4.711
4.711
4.711
4.711
4.711
4.711
4.711
4.711
4.711
4.711
4.711
4.711
4.711
4.711
4.711
4.711
4.711
4.711
4.711
4.711
4.711
4.711
4.711
4.711
4.711
4.711
4.711
4.711
4.711
4.711
4.711
4.711
4.711
4.711
4.711
4.711
4.711
4.711
4.711
4.711
4.711
4.711
4.711
4.711
4.711
4.711
4.711
4.711
4.711
4.711
4.711
4.711
4.711
4.711
4.711
4.711
4.711
4.711
4.711
4.711
4.711
4.711
4.711
4.711
4.711
4.711
4.711
4.711
4.711
4.711
4.711
4.711
4.711
4.711
4.711
4.711
4.711
4.711
4.711
4.711
4.711
4.711
4.711
4.711
4.711
4.711
4.711
4.711
4.711
4.711
4.711
4.711
4.711
4.711
4.711
4.711
4.711
4.711
4.711
4.711
4.711
4.711
4.711
4.711
4.711
4.711
4.711
4.711
4.711
4.711
4.711
4.711
4.711
4.711
4.711
4.711
4.711
4.711
4.711
4.711
4.711
4.711
4.711
4.711
4.711
4.711
4.711
4.711
4.711
4.711
4.711
4.711
4.711
4.711
4.711
4.711
4.711
4.711
4.711
4.711
4.711
4.711
4.711
4.711
4.711
4.711
4.711
4.711
4.711
4.711
4.711
4.711
4.711
4.711
4.711
4.711
4.711
4.711
4.711
4.711
4.711
4.711
4.711
4.711
4.711
4.711
4.711
4.711
4.711
4.711
4.711
4.711
4.711
4.711
4.711
4.711
4.711
4.711
4.711
4.711
4.711
4.711
4.711
4.711
4.711
4.711
4.711
4.711
4.711
4.711
4.711
4.711
4.711
4.711
4.711
4.711
4.711
4.711
4.711
4.711
4.711
4.711
4.711
4.711
4.711
4.711
4.711
4.711
4.711
4.711
4.711
4.711
4.711
4.711
4.711
4.711
4.711
4.711
4.711
4.711
4.711
4.711
4.711
4.711
4.711
4.711
4.711
4.711
4.711
4.711
4.711
4.711
4.711
4.711
4.711
4.711
4.711
4.711
4.711
4.711
4.711
4.711
4.711
4.711
4.711
4.711
4.711
4.711
4.711
4.711
4.711
4.711
4.711
4.711
4.711
4.711
4.711
4.711
4.711
4.711
4.711
4.711
4.711
4.711
4.711
4.711
4.711
4.711
4.711
4.711
4.711
4.711
4.711
4.711
4.711
4.711
4.711
4.711
4.711
4.711
4.711
4.711
4.711
4.711
4.711
4.711
4.711
4.711
4.711
4.711
4.711
4.711
4.711
4.711
4.711
4.711
4.711
4.711
4.711
4.711
4.711
4.711
4.711
4.711
4.711
4.711
4.711
4.711
4.711
4.711
4.711
4.711
4.711
4.711
4.711
4.711
4.711
4.711
4.711
4.711
4.711
4.711
4.711
4.711
4.711
4.711
4.711
4.711
4.711
4.711
4.711
4.711
4.711
4.711
4.711
4.711
4.711
4.711
4.711
4.711
4.711
4.711
4.711
4.711
4.711
4.711
4.711
4.711
4.711
4.711
4.711
4.711
4.711
4.711
4.711
4.711
4.711
4.711
4.711
4.711
4.711
4.711
4.711
4.711
4.711
4.711
4.711
4.711
4.711
4.711
4.711
4.711
4.711
4.711
4.711
4.711
4.711
4.711
4.711
4.711
4.711
4.711
4.711
4.711
4.711
4.711
4.711
4.711
4.711
4.711
4.711
4.711
4.711
4.711
4.711
4.711
4.711
4.711
4.711
4.711
4.711
4.711
4.711
4.711
4.711
4.711
4.711
4.711
4.711
4.711
4.711
4.711
4.711
4.711
4.711
4.711
4.711
4.711
4.711
4.711
4.711
4.711
4.711
4.711
4.711
4.711
4.711
4.711
4.711
4.711
4.711
4.711
4.711
4.711
4.711
4.711
4.711
4.711
4.711
4.711
4.711
4.711
4.711
4.711
4.711
4.711
4.711
4.711
4.711
4.711
4.711
4.711
4.711
4.711
4.711
4.711
4.711
4.711
4.711
4.711
4.711
4.711
4.711
4.711
4.711
4.711
4.711
4.711
4.711
4.711
4.711
4.711
4.711
4.711
4.711
4.711
4.711
4.711
4.711
4.711
4.711
4.711
4.711
4.711
4.711
4.711
4.711
4.711
4.711
4.711
4.711
4.711
4.711
4.711
4.711
4.711
4.711
4.711
4.711
4.711
4.711
4.711
4.711
4.711
4.711
4.711
4.711
4.711
4.711
4.711
4.711
4.711
4.711
4.711
4.711
4.711
4.711
4.711
4.711
4.711
4.711
4.711
4.711
4.711
4.711
4.711
4.711
4.711
4.711
4.711
4.711
4.711
4.711
4.711
4.711
4.711
4.711
4.711
4.711
4.711
4.711
4.711
4.711
4.711
4.711
4.711
4.711
4.711
4.711
4.711
4.711
4.711
4.711
4.711
4.711
4.711
4.711
4.711
4.711
4.711
4.711
4.711
4.711
4.711
4.711
4.711
4.711
4.711
4.711
4.711
4.711
4.711
4.711
4.711
4.711
4.711
4.711
4.711
4.711
4.711
4.711
4.711
4.711
4.711
4.711
4.711
4.711
4.711
4.711
4.711
4.711
4.711
4.711
4.711
4.711
4.711
4.711
4.711
4.711
4.711
4.711
4.711
4.711
4.711
4.711
4.711
4.711
4.711
4.711
4.711
4.711
4.711
4.711
4.711
4.711
4.711
4.711
4.711
4.711
4.711
4.711
4.711
4.711
4.711
4.711
4.711
4.711
4.711
4.711
4.711
4.711
4.711
4.711
4.711
4.711
4.711
4.711
4.711
4.711
4.711
4.711
4.711
4.711
4.711
4.711
4.711
4.711
4.711
4.711
4.711
4.711
4.711
4.711
4.711
4.711
4.711
4.711
4.711
4.711
4.711
4.711
4.711
4.711
4.711
4.711
4.711
4.711
4.711
4.711
4.711
4.711
4.711
4.711
4.711
4.711
4.711
4.711
4.711
4.711
4.711
4.711
4.711
4.711
4.711
4.711
4.711
4.711
4.711
4.711
4.711
4.711
4.711
4.711
4.711
4.711
4.711
4.711
4.711
4.711
4.711
4.711
4.711
4.711
4.711
4.711
4.711
4.711
4.711
4.711
4.711
4.711
4.711
4.711
4.711
4.711
4.711
4.711
4.711
4.711
4.711
4.711
4.711
4.711
4.711
4.711
4.711
4.711
4.711
4.711
4.711
4.711
4.711
4.711
4.711
4.711
4.711
4.711
4.711
4.711
4.711
4.711
4.711
4.711
4.711
4.711
4.711
4.711
4.711
4.711
4.711
4.711
4.711
4.711
4.711
4.711
4.711
4.711
4.711
4.711
4.711
4.711
4.711
4.711
4.711
4.711
4.711
4.711
4.711
4.711
4.711
4.711
4.711
4.711
4.711
4.711
4.711
4.711
4.711
4.711
4.711
4.711
4.711
4.711
4.711
4.711
4.711
4.711
4.711
4.711
4.711
4.711
4.711
4.711
4.711
4.711
4.711
4.711
4.711
4.711
4.711
4.711
4.711
4.711
4.711
4.711
4.711
4.711
4.711
4.711
4.711
4.711
4.711
4.711
4.711
4.711
4.711
4.711
4.711
4.711
4.711
4.711
4.711
4.711
4.711
4.711
4.711
4.711
4.711
4.711
4.711
4.711
4.711
4.711
4.711
4.711
4.711
4.711
4.711
4.711
4.711
4.711
4.711
4.711
4.711
4.711
4.711
4.711
4.711
4.711
4.711
4.711
4.711
4.711
4.711
4.711
4.711
4.711
4.711
4.711
4.711
4.711
4.711
4.711
4.711
4.711
4.711
4.711
4.711
4.711
4.711
4.711
4.711
4.711
4.711
4.711
4.711
4.711
4.711
4.711
4.711
4.711
4.711
4.711
4.711
4.711
4.711
4.711
4.711
4.711
4.711
4.711
4.711
4.711
4.711
4.711
4.711
4.711
4.711
4.711
4.711
4.711
4.711
4.711
4.711
4.711
4.711
4.711
4.711
4.711
4.711
4.711
4.711
4.711
4.711
4.711
4.711
4.711
4.711
4.711
4.711
4.711
4.711
4.711
4.711
4.711
4.711
4.711
4.711
4.711
4.711
4.711
4.711
4.711
4.711
4.711
4.711
4.711
4.711
4.711
4.711
4.711
4.711
4.711
4.711
4.711
4.711
4.711
4.711
4.711
4.711
4.711
4.711
4.711
4.711
4.711
4.711
4.711
4.711
4.711
4.711
4.711
4.711
4.711
4.711
4.711
4.711
4.711
4.711
4.711
4.711
4.711
4.711
4.711
4.711
4.711
4.711
4.711
4.711
4.711
4.711
4.711
4.711
4.711
4.711
4.711
4.711
4.711
4.711
4.711
4.711
4.711
4.711
4.711
4.711
4.711
4.711
4.711
4.711
4.711
4.711
4.711
4.711
4.711
4.711
4.711
4.711
4.711
4.711
4.711
4.711
4.711
4.711
4.711
4.711
4.711
4.711
4.711
4.711
4.711
4.711
4.711
4.711
4.711
4.711
4.711
4.711
4.711
4.711
4.711
4.711
4.711
4.711
4.711
4.711
4.711
4.711
4.711
4.711
4.711
4.711
4.711
4.711
4.711
4.711
4.711
4.711
4.711
4.711
4.711
4.711
4.711
4.711
4.711
4.711
4.711
4.711
4.711
4.711
4.711
4.711
4.711
4.711
4.711
4.711
4.711
4.711
4.711
4.711
4.711
4.711
4.711
4.711
4.711
4.711
4.711
4.711
4.711
4.711
4.711
4.711
4.711
4.711
4.711
4.711
4.711
4.711
4.711
4.711
4.711
4.711
4.711
4.711
4.711
4.711
4.711
4.711
4.711
4.711
4.711
4.711
4.711
4.711
4.711
4.711
4.711
4.711
4.711
4.711
4.711
4.711
4.711
4.711
4.711
4.711
4.711
4.711
4.711
4.711
4.711
4.711
4.711
4.711
4.711
4.711
4.711
4.711
4.711
4.711
4.711
4.711
4.711
4.711
4.711
4.711
4.711
4.711
4.711
4.711
4.711
4.711
4.711
4.711
4.711
4.711
4.711
4.711
4.711
4.711
4.711
4.711
4.711
4.711
4.711
4.711
4.711
4.711
4.711
4.711
4.711
4.711
4.711
4.711
4.711
4.711
4.711
4.711
4.711
4.711
4.711
4.711
4.711
4.711
4.711
4.711
4.711
4.711
4.711
4.711
4.711
4.711
4.711
4.711
4.711
4.711
4.711
4.711
4.711
4.711
4.711
4.711
4.711
4.711
4.711
4.711
4.711
4.711
4.711
4.711
4.711
4.711
4.711
4.711
4.711
4.711
4.711
4.711
4.711
4.711
4.711
4.711
4.711
4.711
4.711
4.711
4.711
4.711
4.711
4.711
4.711
4.711
4.711
4.711
4.711
4.711
4.711
4.711
4.711
4.711
4.711
4.711
4.711
4.711
4.711
4.711
4.711
4.711
4.711
4.711
4.711
4.711
4.711
4.711
4.711
4.711
4.711
4.711
4.711
4.711
4.711
4.711
4.711
4.711
4.711
4.711
4.711
4.711
4.711
4.711
4.711
4.711
4.711
4.711
4.711
4.711
4.711
4.711
4.711
4.711
4.711
4.711
4.711
4.711
4.711
4.711
4.711
4.711
4.711
4.711
4.711
4.711
4.711
4.711
4.711
4.711
4.711
4.711
4.711
4.711
4.711
4.711
4.711
4.711
4.711
4.711
4.711
4.711
4.711
4.711
4.711
4.711
4.711
4.711
4.711
4.711
4.711
4.711
4.711
4.711
4.711
4.711
4.711
4.711
4.711
4.711
4.711
4.711
4.711
4.711
4.711
4.711
4.711
4.711
4.711
4.711
4.711
4.711
4.711
4.711
4.711
4.711
4.711
4.711
4.711
4.711
4.711
4.711
4.711
4.711
4.711
4.711
4.711
4.711
4.711
4.711
4.711
4.711
4.711
4.711
4.711
4.711
4.711
4.711
4.711
4.711
4.711
4.711
4.711
4.711
4.711
4.711
4.711
4.711
4.711
4.711
4.711
4.711
4.711
4.711
4.711
4.711
4.711
4.711
4.711
4.711
4.711
4.711
4.711
4.711
4.711
4.711
4.711
4.711
4.711
4.711
4.711
4.711
4.711
4.711
4.711
4.711
4.711
4.711
4.711
4.711
4.711
4.711
4.711
4.711
4.711
4.711
4.711
4.711
4.711
4.711
4.711
4.711
4.711
4.711
4.711
4.711
4.711
4.711
4.711
4.711
4.711
4.711
4.711
4.711
4.711
4.711
4.711
4.711
4.711
4.711
4.711
4.711
4.711
4.711
4.711
4.711
4.711
4.711
4.711
4.711
4.711
4.711
4.711
4.711
4.711
4.711
4.711
4.711
4.711
4.711
4.711
4.711
4.711
4.711
4.711
4.711
4.711
4.711
4.711
4.711
4.711
4.711
4.711
4.711
4.711
4.711
4.711
4.711
4.711
4.711
4.711
4.711
4.711
4.711
4.711
4.711
4.711
4.711
4.711
4.711
4.711
4.711
4.711
4.711
4.711
4.711
4.711
4.711
4.711
4.711
4.711
4.711
4.711
4.711
4.711
4.711
4.711
4.711
4.711
4.711
4.711
4.711
4.711
4.711
4.711
4.711
4.711
4.711
4.711
4.711
4.711
4.711
4.711
4.711
4.711
4.711
4.711
4.711
4.711
4.711
4.711
4.711
4.711
4.711
4.711
4.711
4.711
4.711
4.711
4.711
4.711
4.711
4.711
4.711
4.711
4.711
4.711
4.711
4.711
4.711
4.711
4.711
4.711
4.711
4.711
4.711
4.711
4.711
4.711
4.711
4.711
4.711
4.711
4.711
4.711
4.711
4.711
4.711
4.711
4.711
4.711
4.711
4.711
4.711
4.711
4.711
4.711
4.711
4.711
4.711
4.711
4.711
4.711
4.711
4.711
4.711
4.711
4.711
4.711
4.711
4.711
4.711
4.711
4.711
4.711
4.711
4.711
4.711
4.711
4.711
4.711
4.711
4.711
4.711
4.711
4.711
4.711
4.711
4.711
4.711
4.711
4.711
4.711
4.711
4.711
4.711
4.711
4.711
4.711
4.711
4.711
4.711
4.711
4.711
4.711
4.711
4.711
4.711
4.711
4.711
4.711
4.711
4.711
4.711
4.711
4.711
4.711
4.711
4.711
4.711
4.711
4.711
4.711
4.711
4.711
4.711
4.711
4.711
4.711
4.711
4.711
4.711
4.711
4.711
4.711
4.711
4.711
4.711
4.711
4.711
4.711
4.711
4.711
4.711
4.711
4.711
4.711
4.711
4.711
4.711
4.711
4.711
4.711
4.711
4.711
4.711
4.711
4.711
4.711
4.711
4.711
4.711
4.711
4.711
4.711
4.711
4.711
4.711
4.711
4.711
4.711
4.711
4.711
4.711
4.711
4.711
4.711
4.711
4.711
4.711
4.711
4.711
4.711
4.711
4.711
4.711
4.711
4.711
4.711
4.711
4.711
4.711
4.711
4.711
4.711
4.711
4.711
4.711
4.711
4.711
4.711
4.711
4.711
4.711
4.711
4.711
4.711
4.711
4.711
4.711
4.711

SCALARS p float
LOOKUP_TABLE default 
8446.92
8446.92
8411.76
8417.19
8417.19
0
0
0
0
0
-2298.95
-2298.95
-2256.72
-2192.78
-2113.82
-2023.62
-1923.82
-1815.13
-1697.06
-1571.95
-1442.94
-1312.43
-1182.41
-1054.7
-930.686
-811.468
-697.873
-590.25
-488.822
-394.543
-307.53
-227.819
-155.361
-90.0363
-31.6612
19.9982
65.2152
104.292
137.552
165.329
187.962
205.792
219.152
228.368
233.752
235.603
234.204
229.819
222.697
213.065
201.134
187.092
171.113
153.351
133.939
112.994
90.613
66.849
41.5953
10
8446.92
8446.92
8411.76
8417.19
8417.19
0
0
0
0
0
-2298.95
-2298.95
-2256.72
-2192.78
-2113.82
-2023.62
-1923.82
-1815.13
-1697.06
-1571.95
-1442.94
-1312.43
-1182.41
-1054.7
-930.686
-811.468
-697.873
-590.25
-488.822
-394.543
-307.53
-227.819
-155.361
-90.0363
-31.6612
19.9982
65.2152
104.292
137.552
165.329
187.962
205.792
219.152
228.368
233.752
235.603
234.204
229.819
222.697
213.065
201.134
187.092
171.113
153.351
133.939
112.994
90.613
66.849
41.5953
10
8358.31
8358.31
8338.8
8373.27
8373.27
0
0
0
0
0
-2319.61
-2319.61
-2268.33