# vtk DataFile Version 3.0
vtk output437
ASCII
DATASET STRUCTURED_GRID
DIMENSIONS 36 26 1
POINTS 936 float
0 0 0
0.171429 0 0
0.342857 0 0
0.514286 0 0
0.685714 0 0
0.857143 0 0
1.02857 0 0
1.2 0 0
1.37143 0 0
1.54286 0 0
1.71429 0 0
1.88571 0 0
2.05714 0 0
2.22857 0 0
2.4 0 0
2.57143 0 0
2.74286 0 0
2.91429 0 0
3.08571 0 0
3.25714 0 0
3.42857 0 0
3.6 0 0
3.77143 0 0
3.94286 0 0
4.11429 0 0
4.28571 0 0
4.45714 0 0
4.62857 0 0
4.8 0 0
4.97143 0 0
5.14286 0 0
5.31429 0 0
5.48571 0 0
5.65714 0 0
5.82857 0 0
6 0 0
0 0.2 0
0.171429 0.2 0
0.342857 0.2 0
0.514286 0.2 0
0.685714 0.2 0
0.857143 0.2 0
1.02857 0.2 0
1.2 0.2 0
1.37143 0.2 0
1.54286 0.2 0
1.71429 0.2 0
1.88571 0.2 0
2.05714 0.2 0
2.22857 0.2 0
2.4 0.2 0
2.57143 0.2 0
2.74286 0.2 0
2.91429 0.2 0
3.08571 0.2 0
3.25714 0.2 0
3.42857 0.2 0
3.6 0.2 0
3.77143 0.2 0
3.94286 0.2 0
4.11429 0.2 0
4.28571 0.2 0
4.45714 0.2 0
4.62857 0.2 0
4.8 0.2 0
4.97143 0.2 0
5.14286 0.2 0
5.31429 0.2 0
5.48571 0.2 0
5.65714 0.2 0
5.82857 0.2 0
6 0.2 0
0 0.4 0
0.171429 0.4 0
0.342857 0.4 0
0.514286 0.4 0
0.685714 0.4 0
0.857143 0.4 0
1.02857 0.4 0
1.2 0.4 0
1.37143 0.4 0
1.54286 0.4 0
1.71429 0.4 0
1.88571 0.4 0
2.05714 0.4 0
2.22857 0.4 0
2.4 0.4 0
2.57143 0.4 0
2.74286 0.4 0
2.91429 0.4 0
3.08571 0.4 0
3.25714 0.4 0
3.42857 0.4 0
3.6 0.4 0
3.77143 0.4 0
3.94286 0.4 0
4.11429 0.4 0
4.28571 0.4 0
4.45714 0.4 0
4.62857 0.4 0
4.8 0.4 0
4.97143 0.4 0
5.14286 0.4 0
5.31429 0.4 0
5.48571 0.4 0
5.65714 0.4 0
5.82857 0.4 0
6 0.4 0
0 0.6 0
0.171429 0.6 0
0.342857 0.6 0
0.514286 0.6 0
0.685714 0.6 0
0.857143 0.6 0
1.02857 0.6 0
1.2 0.6 0
1.37143 0.6 0
1.54286 0.6 0
1.71429 0.6 0
1.88571 0.6 0
2.05714 0.6 0
2.22857 0.6 0
2.4 0.6 0
2.57143 0.6 0
2.74286 0.6 0
2.91429 0.6 0
3.08571 0.6 0
3.25714 0.6 0
3.42857 0.6 0
3.6 0.6 0
3.77143 0.6 0
3.94286 0.6 0
4.11429 0.6 0
4.28571 0.6 0
4.45714 0.6 0
4.62857 0.6 0
4.8 0.6 0
4.97143 0.6 0
5.14286 0.6 0
5.31429 0.6 0
5.48571 0.6 0
5.65714 0.6 0
5.82857 0.6 0
6 0.6 0
0 0.8 0
0.171429 0.8 0
0.342857 0.8 0
0.514286 0.8 0
0.685714 0.8 0
0.857143 0.8 0
1.02857 0.8 0
1.2 0.8 0
1.37143 0.8 0
1.54286 0.8 0
1.71429 0.8 0
1.88571 0.8 0
2.05714 0.8 0
2.22857 0.8 0
2.4 0.8 0
2.57143 0.8 0
2.74286 0.8 0
2.91429 0.8 0
3.08571 0.8 0
3.25714 0.8 0
3.42857 0.8 0
3.6 0.8 0
3.77143 0.8 0
3.94286 0.8 0
4.11429 0.8 0
4.28571 0.8 0
4.45714 0.8 0
4.62857 0.8 0
4.8 0.8 0
4.97143 0.8 0
5.14286 0.8 0
5.31429 0.8 0
5.48571 0.8 0
5.65714 0.8 0
5.82857 0.8 0
6 0.8 0
0 1 0
0.171429 1 0
0.342857 1 0
0.514286 1 0
0.685714 1 0
0.857143 1 0
1.02857 1 0
1.2 1 0
1.37143 1 0
1.54286 1 0
1.71429 1 0
1.88571 1 0
2.05714 1 0
2.22857 1 0
2.4 1 0
2.57143 1 0
2.74286 1 0
2.91429 1 0
3.08571 1 0
3.25714 1 0
3.42857 1 0
3.6 1 0
3.77143 1 0
3.94286 1 0
4.11429 1 0
4.28571 1 0
4.45714 1 0
4.62857 1 0
4.8 1 0
4.97143 1 0
5.14286 1 0
5.31429 1 0
5.48571 1 0
5.65714 1 0
5.82857 1 0
6 1 0
0 1.2 0
0.171429 1.2 0
0.342857 1.2 0
0.514286 1.2 0
0.685714 1.2 0
0.857143 1.2 0
1.02857 1.2 0
1.2 1.2 0
1.37143 1.2 0
1.54286 1.2 0
1.71429 1.2 0
1.88571 1.2 0
2.05714 1.2 0
2.22857 1.2 0
2.4 1.2 0
2.57143 1.2 0
2.74286 1.2 0
2.91429 1.2 0
3.08571 1.2 0
3.25714 1.2 0
3.42857 1.2 0
3.6 1.2 0
3.77143 1.2 0
3.94286 1.2 0
4.11429 1.2 0
4.28571 1.2 0
4.45714 1.2 0
4.62857 1.2 0
4.8 1.2 0
4.97143 1.2 0
5.14286 1.2 0
5.31429 1.2 0
5.48571 1.2 0
5.65714 1.2 0
5.82857 1.2 0
6 1.2 0
0 1.4 0
0.171429 1.4 0
0.342857 1.4 0
0.514286 1.4 0
0.685714 1.4 0
0.857143 1.4 0
1.02857 1.4 0
1.2 1.4 0
1.37143 1.4 0
1.54286 1.4 0
1.71429 1.4 0
1.88571 1.4 0
2.05714 1.4 0
2.22857 1.4 0
2.4 1.4 0
2.57143 1.4 0
2.74286 1.4 0
2.91429 1.4 0
3.08571 1.4 0
3.25714 1.4 0
3.42857 1.4 0
3.6 1.4 0
3.77143 1.4 0
3.94286 1.4 0
4.11429 1.4 0
4.28571 1.4 0
4.45714 1.4 0
4.62857 1.4 0
4.8 1.4 0
4.97143 1.4 0
5.14286 1.4 0
5.31429 1.4 0
5.48571 1.4 0
5.65714 1.4 0
5.82857 1.4 0
6 1.4 0
0 1.6 0
0.171429 1.6 0
0.342857 1.6 0
0.514286 1.6 0
0.685714 1.6 0
0.857143 1.6 0
1.02857 1.6 0
1.2 1.6 0
1.37143 1.6 0
1.54286 1.6 0
1.71429 1.6 0
1.88571 1.6 0
2.05714 1.6 0
2.22857 1.6 0
2.4 1.6 0
2.57143 1.6 0
2.74286 1.6 0
2.91429 1.6 0
3.08571 1.6 0
3.25714 1.6 0
3.42857 1.6 0
3.6 1.6 0
3.77143 1.6 0
3.94286 1.6 0
4.11429 1.6 0
4.28571 1.6 0
4.45714 1.6 0
4.62857 1.6 0
4.8 1.6 0
4.97143 1.6 0
5.14286 1.6 0
5.31429 1.6 0
5.48571 1.6 0
5.65714 1.6 0
5.82857 1.6 0
6 1.6 0
0 1.8 0
0.171429 1.8 0
0.342857 1.8 0
0.514286 1.8 0
0.685714 1.8 0
0.857143 1.8 0
1.02857 1.8 0
1.2 1.8 0
1.37143 1.8 0
1.54286 1.8 0
1.71429 1.8 0
1.88571 1.8 0
2.05714 1.8 0
2.22857 1.8 0
2.4 1.8 0
2.57143 1.8 0
2.74286 1.8 0
2.91429 1.8 0
3.08571 1.8 0
3.25714 1.8 0
3.42857 1.8 0
3.6 1.8 0
3.77143 1.8 0
3.94286 1.8 0
4.11429 1.8 0
4.28571 1.8 0
4.45714 1.8 0
4.62857 1.8 0
4.8 1.8 0
4.97143 1.8 0
5.14286 1.8 0
5.31429 1.8 0
5.48571 1.8 0
5.65714 1.8 0
5.82857 1.8 0
6 1.8 0
0 2 0
0.171429 2 0
0.342857 2 0
0.514286 2 0
0.685714 2 0
0.857143 2 0
1.02857 2 0
1.2 2 0
1.37143 2 0
1.54286 2 0
1.71429 2 0
1.88571 2 0
2.05714 2 0
2.22857 2 0
2.4 2 0
2.57143 2 0
2.74286 2 0
2.91429 2 0
3.08571 2 0
3.25714 2 0
3.42857 2 0
3.6 2 0
3.77143 2 0
3.94286 2 0
4.11429 2 0
4.28571 2 0
4.45714 2 0
4.62857 2 0
4.8 2 0
4.97143 2 0
5.14286 2 0
5.31429 2 0
5.48571 2 0
5.65714 2 0
5.82857 2 0
6 2 0
0 2.2 0
0.171429 2.2 0
0.342857 2.2 0
0.514286 2.2 0
0.685714 2.2 0
0.857143 2.2 0
1.02857 2.2 0
1.2 2.2 0
1.37143 2.2 0
1.54286 2.2 0
1.71429 2.2 0
1.88571 2.2 0
2.05714 2.2 0
2.22857 2.2 0
2.4 2.2 0
2.57143 2.2 0
2.74286 2.2 0
2.91429 2.2 0
3.08571 2.2 0
3.25714 2.2 0
3.42857 2.2 0
3.6 2.2 0
3.77143 2.2 0
3.94286 2.2 0
4.11429 2.2 0
4.28571 2.2 0
4.45714 2.2 0
4.62857 2.2 0
4.8 2.2 0
4.97143 2.2 0
5.14286 2.2 0
5.31429 2.2 0
5.48571 2.2 0
5.65714 2.2 0
5.82857 2.2 0
6 2.2 0
0 2.4 0
0.171429 2.4 0
0.342857 2.4 0
0.514286 2.4 0
0.685714 2.4 0
0.857143 2.4 0
1.02857 2.4 0
1.2 2.4 0
1.37143 2.4 0
1.54286 2.4 0
1.71429 2.4 0
1.88571 2.4 0
2.05714 2.4 0
2.22857 2.4 0
2.4 2.4 0
2.57143 2.4 0
2.74286 2.4 0
2.91429 2.4 0
3.08571 2.4 0
3.25714 2.4 0
3.42857 2.4 0
3.6 2.4 0
3.77143 2.4 0
3.94286 2.4 0
4.11429 2.4 0
4.28571 2.4 0
4.45714 2.4 0
4.62857 2.4 0
4.8 2.4 0
4.97143 2.4 0
5.14286 2.4 0
5.31429 2.4 0
5.48571 2.4 0
5.65714 2.4 0
5.82857 2.4 0
6 2.4 0
0 2.6 0
0.171429 2.6 0
0.342857 2.6 0
0.514286 2.6 0
0.685714 2.6 0
0.857143 2.6 0
1.02857 2.6 0
1.2 2.6 0
1.37143 2.6 0
1.54286 2.6 0
1.71429 2.6 0
1.88571 2.6 0
2.05714 2.6 0
2.22857 2.6 0
2.4 2.6 0
2.57143 2.6 0
2.74286 2.6 0
2.91429 2.6 0
3.08571 2.6 0
3.25714 2.6 0
3.42857 2.6 0
3.6 2.6 0
3.77143 2.6 0
3.94286 2.6 0
4.11429 2.6 0
4.28571 2.6 0
4.45714 2.6 0
4.62857 2.6 0
4.8 2.6 0
4.97143 2.6 0
5.14286 2.6 0
5.31429 2.6 0
5.48571 2.6 0
5.65714 2.6 0
5.82857 2.6 0
6 2.6 0
0 2.8 0
0.171429 2.8 0
0.342857 2.8 0
0.514286 2.8 0
0.685714 2.8 0
0.857143 2.8 0
1.02857 2.8 0
1.2 2.8 0
1.37143 2.8 0
1.54286 2.8 0
1.71429 2.8 0
1.88571 2.8 0
2.05714 2.8 0
2.22857 2.8 0
2.4 2.8 0
2.57143 2.8 0
2.74286 2.8 0
2.91429 2.8 0
3.08571 2.8 0
3.25714 2.8 0
3.42857 2.8 0
3.6 2.8 0
3.77143 2.8 0
3.94286 2.8 0
4.11429 2.8 0
4.28571 2.8 0
4.45714 2.8 0
4.62857 2.8 0
4.8 2.8 0
4.97143 2.8 0
5.14286 2.8 0
5.31429 2.8 0
5.48571 2.8 0
5.65714 2.8 0
5.82857 2.8 0
6 2.8 0
0 3 0
0.171429 3 0
0.342857 3 0
0.514286 3 0
0.685714 3 0
0.857143 3 0
1.02857 3 0
1.2 3 0
1.37143 3 0
1.54286 3 0
1.71429 3 0
1.88571 3 0
2.05714 3 0
2.22857 3 0
2.4 3 0
2.57143 3 0
2.74286 3 0
2.91429 3 0
3.08571 3 0
3.25714 3 0
3.42857 3 0
3.6 3 0
3.77143 3 0
3.94286 3 0
4.11429 3 0
4.28571 3 0
4.45714 3 0
4.62857 3 0
4.8 3 0
4.97143 3 0
5.14286 3 0
5.31429 3 0
5.48571 3 0
5.65714 3 0
5.82857 3 0
6 3 0
0 3.2 0
0.171429 3.2 0
0.342857 3.2 0
0.514286 3.2 0
0.685714 3.2 0
0.857143 3.2 0
1.02857 3.2 0
1.2 3.2 0
1.37143 3.2 0
1.54286 3.2 0
1.71429 3.2 0
1.88571 3.2 0
2.05714 3.2 0
2.22857 3.2 0
2.4 3.2 0
2.57143 3.2 0
2.74286 3.2 0
2.91429 3.2 0
3.08571 3.2 0
3.25714 3.2 0
3.42857 3.2 0
3.6 3.2 0
3.77143 3.2 0
3.94286 3.2 0
4.11429 3.2 0
4.28571 3.2 0
4.45714 3.2 0
4.62857 3.2 0
4.8 3.2 0
4.97143 3.2 0
5.14286 3.2 0
5.31429 3.2 0
5.48571 3.2 0
5.65714 3.2 0
5.82857 3.2 0
6 3.2 0
0 3.4 0
0.171429 3.4 0
0.342857 3.4 0
0.514286 3.4 0
0.685714 3.4 0
0.857143 3.4 0
1.02857 3.4 0
1.2 3.4 0
1.37143 3.4 0
1.54286 3.4 0
1.71429 3.4 0
1.88571 3.4 0
2.05714 3.4 0
2.22857 3.4 0
2.4 3.4 0
2.57143 3.4 0
2.74286 3.4 0
2.91429 3.4 0
3.08571 3.4 0
3.25714 3.4 0
3.42857 3.4 0
3.6 3.4 0
3.77143 3.4 0
3.94286 3.4 0
4.11429 3.4 0
4.28571 3.4 0
4.45714 3.4 0
4.62857 3.4 0
4.8 3.4 0
4.97143 3.4 0
5.14286 3.4 0
5.31429 3.4 0
5.48571 3.4 0
5.65714 3.4 0
5.82857 3.4 0
6 3.4 0
0 3.6 0
0.171429 3.6 0
0.342857 3.6 0
0.514286 3.6 0
0.685714 3.6 0
0.857143 3.6 0
1.02857 3.6 0
1.2 3.6 0
1.37143 3.6 0
1.54286 3.6 0
1.71429 3.6 0
1.88571 3.6 0
2.05714 3.6 0
2.22857 3.6 0
2.4 3.6 0
2.57143 3.6 0
2.74286 3.6 0
2.91429 3.6 0
3.08571 3.6 0
3.25714 3.6 0
3.42857 3.6 0
3.6 3.6 0
3.77143 3.6 0
3.94286 3.6 0
4.11429 3.6 0
4.28571 3.6 0
4.45714 3.6 0
4.62857 3.6 0
4.8 3.6 0
4.97143 3.6 0
5.14286 3.6 0
5.31429 3.6 0
5.48571 3.6 0
5.65714 3.6 0
5.82857 3.6 0
6 3.6 0
0 3.8 0
0.171429 3.8 0
0.342857 3.8 0
0.514286 3.8 0
0.685714 3.8 0
0.857143 3.8 0
1.02857 3.8 0
1.2 3.8 0
1.37143 3.8 0
1.54286 3.8 0
1.71429 3.8 0
1.88571 3.8 0
2.05714 3.8 0
2.22857 3.8 0
2.4 3.8 0
2.57143 3.8 0
2.74286 3.8 0
2.91429 3.8 0
3.08571 3.8 0
3.25714 3.8 0
3.42857 3.8 0
3.6 3.8 0
3.77143 3.8 0
3.94286 3.8 0
4.11429 3.8 0
4.28571 3.8 0
4.45714 3.8 0
4.62857 3.8 0
4.8 3.8 0
4.97143 3.8 0
5.14286 3.8 0
5.31429 3.8 0
5.48571 3.8 0
5.65714 3.8 0
5.82857 3.8 0
6 3.8 0
0 4 0
0.171429 4 0
0.342857 4 0
0.514286 4 0
0.685714 4 0
0.857143 4 0
1.02857 4 0
1.2 4 0
1.37143 4 0
1.54286 4 0
1.71429 4 0
1.88571 4 0
2.05714 4 0
2.22857 4 0
2.4 4 0
2.57143 4 0
2.74286 4 0
2.91429 4 0
3.08571 4 0
3.25714 4 0
3.42857 4 0
3.6 4 0
3.77143 4 0
3.94286 4 0
4.11429 4 0
4.28571 4 0
4.45714 4 0
4.62857 4 0
4.8 4 0
4.97143 4 0
5.14286 4 0
5.31429 4 0
5.48571 4 0
5.65714 4 0
5.82857 4 0
6 4 0
0 4.2 0
0.171429 4.2 0
0.342857 4.2 0
0.514286 4.2 0
0.685714 4.2 0
0.857143 4.2 0
1.02857 4.2 0
1.2 4.2 0
1.37143 4.2 0
1.54286 4.2 0
1.71429 4.2 0
1.88571 4.2 0
2.05714 4.2 0
2.22857 4.2 0
2.4 4.2 0
2.57143 4.2 0
2.74286 4.2 0
2.91429 4.2 0
3.08571 4.2 0
3.25714 4.2 0
3.42857 4.2 0
3.6 4.2 0
3.77143 4.2 0
3.94286 4.2 0
4.11429 4.2 0
4.28571 4.2 0
4.45714 4.2 0
4.62857 4.2 0
4.8 4.2 0
4.97143 4.2 0
5.14286 4.2 0
5.31429 4.2 0
5.48571 4.2 0
5.65714 4.2 0
5.82857 4.2 0
6 4.2 0
0 4.4 0
0.171429 4.4 0
0.342857 4.4 0
0.514286 4.4 0
0.685714 4.4 0
0.857143 4.4 0
1.02857 4.4 0
1.2 4.4 0
1.37143 4.4 0
1.54286 4.4 0
1.71429 4.4 0
1.88571 4.4 0
2.05714 4.4 0
2.22857 4.4 0
2.4 4.4 0
2.57143 4.4 0
2.74286 4.4 0
2.91429 4.4 0
3.08571 4.4 0
3.25714 4.4 0
3.42857 4.4 0
3.6 4.4 0
3.77143 4.4 0
3.94286 4.4 0
4.11429 4.4 0
4.28571 4.4 0
4.45714 4.4 0
4.62857 4.4 0
4.8 4.4 0
4.97143 4.4 0
5.14286 4.4 0
5.31429 4.4 0
5.48571 4.4 0
5.65714 4.4 0
5.82857 4.4 0
6 4.4 0
0 4.6 0
0.171429 4.6 0
0.342857 4.6 0
0.514286 4.6 0
0.685714 4.6 0
0.857143 4.6 0
1.02857 4.6 0
1.2 4.6 0
1.37143 4.6 0
1.54286 4.6 0
1.71429 4.6 0
1.88571 4.6 0
2.05714 4.6 0
2.22857 4.6 0
2.4 4.6 0
2.57143 4.6 0
2.74286 4.6 0
2.91429 4.6 0
3.08571 4.6 0
3.25714 4.6 0
3.42857 4.6 0
3.6 4.6 0
3.77143 4.6 0
3.94286 4.6 0
4.11429 4.6 0
4.28571 4.6 0
4.45714 4.6 0
4.62857 4.6 0
4.8 4.6 0
4.97143 4.6 0
5.14286 4.6 0
5.31429 4.6 0
5.48571 4.6 0
5.65714 4.6 0
5.82857 4.6 0
6 4.6 0
0 4.8 0
0.171429 4.8 0
0.342857 4.8 0
0.514286 4.8 0
0.685714 4.8 0
0.857143 4.8 0
1.02857 4.8 0
1.2 4.8 0
1.37143 4.8 0
1.54286 4.8 0
1.71429 4.8 0
1.88571 4.8 0
2.05714 4.8 0
2.22857 4.8 0
2.4 4.8 0
2.57143 4.8 0
2.74286 4.8 0
2.91429 4.8 0
3.08571 4.8 0
3.25714 4.8 0
3.42857 4.8 0
3.6 4.8 0
3.77143 4.8 0
3.94286 4.8 0
4.11429 4.8 0
4.28571 4.8 0
4.45714 4.8 0
4.62857 4.8 0
4.8 4.8 0
4.97143 4.8 0
5.14286 4.8 0
5.31429 4.8 0
5.48571 4.8 0
5.65714 4.8 0
5.82857 4.8 0
6 4.8 0
0 5 0
0.171429 5 0
0.342857 5 0
0.514286 5 0
0.685714 5 0
0.857143 5 0
1.02857 5 0
1.2 5 0
1.37143 5 0
1.54286 5 0
1.71429 5 0
1.88571 5 0
2.05714 5 0
2.22857 5 0
2.4 5 0
2.57143 5 0
2.74286 5 0
2.91429 5 0
3.08571 5 0
3.25714 5 0
3.42857 5 0
3.6 5 0
3.77143 5 0
3.94286 5 0
4.11429 5 0
4.28571 5 0
4.45714 5 0
4.62857 5 0
4.8 5 0
4.97143 5 0
5.14286 5 0
5.31429 5 0
5.48571 5 0
5.65714 5 0
5.82857 5 0
6 5 0

CELL_DATA 875
SCALARS phi float
LOOKUP_TABLE default 
4.711
4.711
4.711
4.711
4.711
4.711
4.711
4.711
4.711
4.711
4.711
4.711
4.711
4.711
4.711
4.711
4.711
4.711
4.711
4.711
4.711
4.711
4.711
4.711
4.711
4.711
4.711
4.711
4.711
4.711
4.711
4.711
4.711
4.711
4.711
4.711
4.711
4.711
4.711
4.711
4.711
4.711
4.711
4.711
4.711
4.711
4.711
4.711
4.711
4.711
4.711
4.711
4.711
4.711
4.711
4.711
4.711
4.711
4.711
4.711
4.711
4.711
4.711
4.711
4.711
4.711
4.711
4.711
4.711
4.711
4.711
4.711
4.711
4.711
4.711
4.711
4.711
4.711
4.711
4.711
4.711
4.711
4.711
4.711
4.711
4.711
4.711
4.711
4.711
4.711
4.711
4.711
4.711
4.711
4.711
4.711
4.711
4.711
4.711
4.711
4.711
4.711
4.711
4.711
4.711
4.711
4.711
4.711
4.711
4.711
4.711
4.711
4.711
4.711
4.711
4.711
4.711
4.711
4.711
4.711
4.711
4.711
4.711
4.711
4.711
4.711
4.711
4.711
4.711
4.711
4.711
4.711
4.711
4.711
4.711
4.711
4.711
4.711
4.711
4.711
4.711
4.711
4.711
4.711
4.711
4.711
4.711
4.711
4.711
4.711
4.711
4.711
4.711
4.711
4.711
4.711
4.711
4.711
4.711
4.711
4.711
4.711
4.711
4.711
4.711
4.711
4.711
4.711
4.711
4.711
4.711
4.711
4.711
4.711
4.711
4.711
4.711
4.711
4.711
4.711
4.711
4.711
4.711
4.711
4.711
4.711
4.711
4.711
4.711
4.711
4.711
4.711
4.711
4.711
4.711
4.711
4.711
4.711
4.711
4.711
4.711
4.711
4.711
4.711
4.711
4.711
4.711
4.711
4.711
4.711
4.711
4.711
4.711
4.711
4.711
4.711
4.711
4.711
4.711
4.711
4.711
4.711
4.711
4.711
4.711
4.711
4.711
4.711
4.711
4.711
4.711
4.711
4.711
4.711
4.711
4.711
4.711
4.711
4.711
4.711
4.711
4.711
4.711
4.711
4.711
4.711
4.711
4.711
4.711
4.711
4.711
4.711
4.711
4.711
4.711
4.711
4.711
4.711
4.711
4.711
4.711
4.711
4.711
4.711
4.711
4.711
4.711
4.711
4.711
4.711
4.711
4.711
4.711
4.711
4.711
4.711
4.711
4.711
4.711
4.711
4.711
4.711
4.711
4.711
4.711
4.711
4.711
4.711
4.711
4.711
4.711
4.711
4.711
4.711
4.711
4.711
4.711
4.711
4.711
4.711
4.711
4.711
4.711
4.711
4.711
4.711
4.711
4.711
4.711
4.711
4.711
4.711
4.711
4.711
4.711
4.711
4.711
4.711
4.711
4.711
4.711
4.711
4.711
4.711
4.711
4.711
4.711
4.711
4.711
4.711
4.711
4.711
4.711
4.711
4.711
4.711
4.711
4.711
4.711
4.711
4.711
4.711
4.711
4.711
4.711
4.711
4.711
4.711
4.711
4.711
4.711
4.711
4.711
4.711
4.711
4.711
4.711
4.711
4.711
4.711
4.711
4.711
4.711
4.711
4.711
4.711
4.711
4.711
4.711
4.711
4.711
4.711
4.711
4.711
4.711
4.711
4.711
4.711
4.711
4.711
4.711
4.711
4.711
4.711
4.711
4.711
4.711
4.711
4.711
4.711
4.711
4.711
4.711
4.711
4.711
4.711
4.711
4.711
4.711
4.711
4.711
4.711
4.711
4.711
4.711
4.711
4.711
4.711
4.711
4.711
4.711
4.711
4.711
4.711
4.711
4.711
4.711
4.711
4.711
4.711
4.711
4.711
4.711
4.711
4.711
4.711
4.711
4.711
4.711
4.711
4.711
4.711
4.711
4.711
4.711
4.711
4.711
4.711
4.711
4.711
4.711
4.711
4.711
4.711
4.711
4.711
4.711
4.711
4.711
4.711
4.711
4.711
4.711
4.711
4.711
4.711
4.711
4.711
4.711
4.711
4.711
4.711
4.711
4.711
4.711
4.711
4.711
4.711
4.711
4.711
4.711
4.711
4.711
4.711
4.711
4.711
4.711
4.711
4.711
4.711
4.711
4.711
4.711
4.711
4.711
4.711
4.711
4.711
4.711
4.711
4.711
4.711
4.711
4.711
4.711
4.711
4.711
4.711
4.711
4.711
4.711
4.711
4.711
4.711
4.711
4.711
4.711
4.711
4.711
4.711
4.711
4.711
4.711
4.711
4.711
4.711
4.711
4.711
4.711
4.711
4.711
4.711
4.711
4.711
4.711
4.711
4.711
4.711
4.711
4.711
4.711
4.711
4.711
4.711
4.711
4.711
4.711
4.711
4.711
4.711
4.711
4.711
4.711
4.711
4.711
4.711
4.711
4.711
4.711
4.711
4.711
4.711
4.711
4.711
4.711
4.711
4.711
4.711
4.711
4.711
4.711
4.711
4.711
4.711
4.711
4.711
4.711
4.711
4.711
4.711
4.711
4.711
4.711
4.711
4.711
4.711
4.711
4.711
4.711
4.711
4.711
4.711
4.711
4.711
4.711
4.711
4.711
4.711
4.711
4.711
4.711
4.711
4.711
4.711
4.711
4.711
4.711
4.711
4.711
4.711
4.711
4.711
4.711
4.711
4.711
4.711
4.711
4.711
4.711
4.711
4.711
4.711
4.711
4.711
4.711
4.711
4.711
4.711
4.711
4.711
4.711
4.711
4.711
4.711
4.711
4.711
4.711
4.711
4.711
4.711
4.711
4.711
4.711
4.711
4.711
4.711
4.711
4.711
4.711
4.711
4.711
4.711
4.711
4.711
4.711
4.711
4.711
4.711
4.711
4.711
4.711
4.711
4.711
4.711
4.711
4.711
4.711
4.711
4.711
4.711
4.711
4.711
4.711
4.711
4.711
4.711
4.711
4.711
4.711
4.711
4.711
4.711
4.711
4.711
4.711
4.711
4.711
4.711
4.711
4.711
4.711
4.711
4.711
4.711
4.711
4.711
4.711
4.711
4.711
4.711
4.711
4.711
4.711
4.711
4.711
4.711
4.711
4.711
4.711
4.711
4.711
4.711
4.711
4.711
4.711
4.711
4.711
4.711
4.711
4.711
4.711
4.711
4.711
4.711
4.711
4.711
4.711
4.711
4.711
4.711
4.711
4.711
4.711
4.711
4.711
4.711
4.711
4.711
4.711
4.711
4.711
4.711
4.711
4.711
4.711
4.711
4.711
4.711
4.711
4.711
4.711
4.711
4.711
4.711
4.711
4.711
4.711
4.711
4.711
4.711
4.711
4.711
4.711
4.711
4.711
4.711
4.711
4.711
4.711
4.711
4.711
4.711
4.711
4.711
4.711
4.711
4.711
4.711
4.711
4.711
4.711
4.711
4.711
4.711
4.711
4.711
4.711
4.711
4.711
4.711
4.711
4.711
4.711
4.711
4.711
4.711
4.711
4.711
4.711
4.711
4.711
4.711
4.711
4.711
4.711
4.711
4.711
4.711
4.711
4.711
4.711
4.711
4.711
4.711
4.711
4.711
4.711
4.711
4.711
4.711
4.711
4.711
4.711
4.711
4.711
4.711
4.711
4.711
4.711
4.711
4.711
4.711
4.711
4.711
4.711
4.711
4.711
4.711
4.711
4.711
4.711
4.711
4.711
4.711
4.711
4.711
4.711
4.711
4.711
4.711
4.711
4.711
4.711
4.711
4.711
4.711
4.711
4.711
4.711
4.711
4.711
4.711
4.711
4.711
4.711
4.711
4.711
4.711
4.711
4.711
4.711
4.711
4.711
4.711
4.711
4.711
4.711
4.711
4.711
4.711
4.711
4.711
4.711
4.711
4.711

SCALARS p float
LOOKUP_TABLE default 
-1592.89
-1592.89
-1592.01
-1588.2
-1582.15
-1582.15
0
0
0
-4684.79
-4684.79
-4601.36
-4406.62
-4104.48
-3728.21
-3316.11
-2899.05
-2498.12
-2126.19
-1790.01
-1492.27
-1232.84
-1009.82
-820.253
-660.612
-527.171
-416.23
-324.319
-248.265
-185.247
-132.814
-88.8638
-51.5883
-19.2753
10
-1592.89
-1592.89
-1592.01
-1588.2
-1582.15
-1582.15
0
0
0
-4684.79
-4684.79
-4601.36
-4406.62
-4104.48
-3728.21
-3316.11
-2899.05
-2498.12
-2126.19
-1790.01
-1492.27
-1232.84
-1009.82
-820.253
-660.612
-527.171
-416.23
-324.319
-248.265
-185.247
-132.814
-88.8638
-51.5883
-19.2753
10
-1599.52
-1599.52
-1598.31
-1593.82
-1585.86
-1585.86
0
0
0
-4697.62
-4697.62
-4624.48
-4432.19
-4122.06
-3734.35
-3312.45
-2888.82
-2484.32
-2111.03
-1774.92
-1478.1
-1220.05
-998.592
-810.61
-652.471
-520.397
-410.665
-319.805
-244.657
-182.422
-130.675
-87.3589
-50.7167
-19.1845
10
-1617.95
-1617.95
-1616.67
-1611.17
-1600.79
-1600.79
0
0
0
-4707.29
-4707.29
-4614.07
-4405.01
-4085.28
-3694.38
-3273.63
-2853.72
-2454.21
-2086.25
-1755.26
-1463.01
-1208.82
-990.493
-804.926
-648.573
-517.758
-408.867
-318.532
-243.685
-181.605
-129.925
-86.6222
-49.9786
-18.5105
10
-1654.38
-1654.38
-1653.4
-1647.36
-1635.09
-1635.09
0
0
0
-4774.28
-4774.28
-4618.77
-4360.45
-4020.54
-3627.51
-3213.23
-2803.43
-2415
-2057.64
-1735.98
-1451.43
-1203.24
-989.322
-806.762
-652.249
-522.354
-413.69
-323.098
-247.68
-184.851
-132.349
-88.2263
-50.8308
-18.7589
10
-1713.9
-1713.9
-1714.17
-1709.44
-1697.18
-1697.18
0
0
0
-4983.56
-4983.56
-4722.2
-4376.93
-3997.81
-3584.55
-3164.88
-2760.02
-2381.72
-2035.88
-1724.95
-1449.32
-1207.91
-998.683
-818.984
-665.821
-536.1
-426.743
-334.868
-257.808
-193.153
-138.77
-92.7951
-53.6466
-19.9848
10
-1798.73
-1798.73
-1802.41
-1803.62
-1797.22
-1797.22
0
0
0
-5354.54
-5354.54
-5182.88
-4676.12
-4146.04
-3625.52
-3158.48
-2741.49
-2366.94
-2030.35
-1729.24
-1461.93
-1226.65
-1021.34
-843.586
-690.766
-560.138
-448.946
-354.624
-274.77
-207.169
-149.829
-100.885
-58.8444
-22.4238
10
-1905.86
-1905.86
-1916.59
-1933.47
-1953.18
-1953.18
-2646.08
-2831.55
-3012.34
-3191.13
-3375.64
-3583.79
-6484.92
-4591.66
-3729.56
-3175.25
-2741.69
-2371.13
-2043.62
-1751.44
-1491.14
-1260.53
-1057.67
-880.525
-726.833
-594.191
-480.015
-382.127
-298.462
-226.945
-165.81
-112.837
-66.8251
-26.5201
10
-2024.35
-2024.35
-2044.81
-2087
-2166.19
-2333.56
-2646.08
-2831.55
-3012.34
-3191.13
-3375.64
-3583.79
-4662.36
-4103.67
-3572.88
-3121.66
-2730.74
-2383.35
-2070.67
-1788.44
-1534.38
-1307.05
-1105.23
-927.455
-771.89
-636.461
-518.202
-415.255
-325.704
-248.216
-181.119
-123.387
-73.3071
-29.4504
10
-2136.43
-2136.43
-2162.73
-2216.9
-2308.21
-2451.01
-2646.08
-2831.55
-3012.34
-3191.13
-3375.64
-3583.79
-3809.96
-3667.63
-3376.56
-3046.76
-2717.96
-2403.94
-2110.04
-1838.75
-1590.21
-1364.71
-1161.38
-979.19
-817.435
-674.825
-550.451
-442.262
-348.388
-266.808
-195.846
-134.1
-80.1367
-32.6331
10
-2227.31
-2227.31
-2255.52
-2312.5
-2401.85
-2526.33
-2681.09
-2846.17
-3013.4
-3177.06
-3330.53
-3460.34
-3530.74
-3451.45
-3260.02
-3006.2
-2724.95
-2437.69
-2157.05
-1890.13
-1642.01
-1414.6
-1208.72
-1024.11
-859.518
-713.678
-585.24
-472.57
-373.95
-287.665
-212.139
-145.934
-87.7082
-36.2184
10
-2287.84
-2287.84
-2316.24
-2373.09
-2459.39
-2574.67
-2714.42
-2868.9
-3028.99
-3184.95
-3323.74
-3425.48
-3460.39
-3396.15
-3240.43
-3019.68
-2761.55
-2487.99
-2214.34
-1950.38
-1702.21
-1473
-1264.09
-1075.54
-906.601
-756.163
-622.826
-505.074
-401.308
-309.947
-229.489
-158.539
-95.8095
-40.1124
10
-2313.02
-2313.02
-2341.46
-2398.48
-2484.56
-2598.92
-2737.88
-2894.28
-3059.72
-3223.92
-3372.11
-3482.8
-3526.08
-3473.55
-3327.8
-3112.05
-2854.08
-2577.38
-2298.84
-2029.29
-1775.25
-1540.14
-1325.34
-1130.96
-956.302
-800.246
-661.358
-538.136
-429.014
-332.458
-247.003
-171.281
-104.039
-44.1161
10
-2300.73
-2300.73
-2330.02
-2388.97
-2479.09
-2600.79
-2750.92
-2921.33
-3104.78
-3293.71
-3477.55
-3635.33
-3726.33
-3688.07
-3529.89
-3290.28
-3007.11
-2708.14
-2411.21
-2126.75
-1860.47
-1615.08
-1391.39
-1189.13
-1007.34
-844.709
-699.68
-570.668
-456.068
-354.323
-263.959
-183.605
-112.01
-48.0164
10
-2251.39
-2251.39
-2281.23
-2342.02
-2438.37
-2574.92
-2749.73
-2946.07
-3159.9
-3390.2
-3634.11
-3887.92
-4115.11
-4084.34
-3869.14
-3561.55
-3220.56
-2877.63
-2548.37
-2240
-1955.59
-1695.96
-1460.7
-1248.73
-1058.57
-888.561
-736.914
-601.89
-481.776
-374.942
-279.862
-195.125
-119.453
-51.6673
10
-2168.77
-2168.77
-2196.94
-2255.49
-2355.11
-2513.02
-2734.89
-2963.36
-3210.6
-3488.79
-3811.57
-4236.92
-4895.76
-4771.37
-4375.93
-3923.34
-3483.41
-3075.17
-2702.08
-2363.12
-2056.39
-1779.75
-1531.01
-1308.02
-1108.62
-930.695
-772.161
-631.06
-505.527
-393.817
-294.317
-205.547
-126.174
-54.9729
10
-2061.76
-2061.76
-2083.74
-2129.46
-2215.5
-2397.35
-2734.89
-2963.36
-3210.6
-3488.79
-3811.57
-4236.92
-6982.48
-5934.06
-5037.92
-4334.03
-3762.23
-3278.62
-2858.23
-2487.03
-2156.81
-1862.21
-1599.25
-1364.7
-1155.71
-969.728
-804.324
-657.307
-526.632
-410.412
-306.92
-214.585
-131.992
-57.8487
10
-1945.8
-1945.8
-1957.37
-1975.9
-1997.65
-1997.65
-2734.89
-2963.36
-3210.6
-3811.57
-3811.57
-4236.92
-11097.1
-7217.8
-5613.76
-4676.91
-4002.93
-3461.75
-3002.93
-2603.49
-2251.44
-1939.47
-1662.47
-1416.44
-1197.99
-1004.15
-832.182
-679.644
-544.297
-424.1
-317.194
-221.897
-136.692
-60.1906
10
-1839.79
-1839.79
-1843.85
-1845.72
-1839.95
-1839.95
0
0
0
-9537.45
-9537.45
-9727.65
-7864.05
-6635.72
-5629.08
-4824.98
-4166.61
-3610.28
-3129.5
-2708.44
-2337.23
-2009
-1718.49
-1461.36
-1233.82
-1032.56
-854.54
-697.058
-557.675
-434.181
-324.581
-227.064
-139.994
-61.8581
10
-1755.42
-1755.42
-1755.85
-1751.36
-1739.31
-1739.31
0
0
0
-8568.91
-8568.91
-8048.97
-7179.25
-6370.42
-5611.38
-4916.14
-4291.36
-3734.52
-3239.87
-2801.14
-2412.63
-2069.07
-1765.63
-1497.88
-1261.79
-1053.71
-870.282
-708.565
-565.898
-439.9
-328.436
-229.567
-141.53
-62.6561
10
-1696.09
-1696.09
-1695.16
-1689.21
-1677.01
-1677.01
0
0
0
-7887.4
-7887.4
-7490.8
-6930.75
-6302.84
-5652.03
-5011.2
-4403.97
-3843.64
-3335.64
-2880.37
-2475.57
-2117.53
-1801.94
-1524.34
-1280.47
-1066.35
-878.337
-713.206
-568.09
-440.446
-328.013
-228.754
-140.791
-62.2949
10
-1659.72
-1659.72
-1658.47
-1652.99
-1642.63
-1642.63
0
0
0
-7530.01
-7530.01
-7262.14
-6848.41
-6320.68
-5726.07
-5109.39
-4505.21
-3935.87
-3413.33
-2942.15
-2522.35
-2151.26
-1824.91
-1538.76
-1288.3
-1069.24
-877.652
-710.053
-563.379
-434.956
-322.442
-223.763
-137.018
-60.2855
10
-1641.32
-1641.32
-1640.12
-1635.64
-1627.68
-1627.68
0
0
0
-7363.5
-7363.5
-7170.37
-6836.01
-6365.11
-5799.79
-5191.36
-4582.43
-4001.65
-3465.22
-2980.22
-2547.98
-2166.41
-1831.63
-1538.98
-1283.68
-1061.18
-867.276
-698.282
-550.974
-422.582
-310.745
-213.458
-128.99
-55.6543
10
-1634.69
-1634.69
-1633.82
-1630.01
-1623.96
-1623.96
0
0
0
-7301.7
-7301.7
-7145.78
-6848.56
-6402.07
-5846.29
-5236.54
-4620.15
-4029.32
-3482.47
-2987.89
-2547.49
-2159.34
-1819.52
-1523.21
-1265.41
-1041.36
-846.672
-677.489
-530.478
-402.808
-292.137
-196.594
-114.837
-46.1831
10
-1634.69
-1634.69
-1633.82
-1630.01
-1623.96
-1623.96
0
0
0
-7301.7
-7301.7
-7145.78
-6848.56
-6402.07
-5846.29
-5236.54
-4620.15
-4029.32
-3482.47
-2987.89
-2547.49
-2159.34
-1819.52
-1523.21
-1265.41
-1041.36
-846.672
-677.489
-530.478
-402.808
-292.137
-196.594
-114.837
-46.1831
10

SCALARS  u float
LOOKUP_TABLE default 
0.3625
-0.732844
-0.749831
-0.754672
-0.758322
-0.76319
0
0
0
-3.04945
-3.34796
-3.3516
-3.34098
-3.31534
-3.277
-3.23029
-3.1794
-3.12757
-3.07706
-3.02937
-2.9854
-2.94569
-2.91047
-2.87975
-2.85345
-2.83132
-2.8131
-2.79844
-2.78699
-2.77837
-2.77222
-2.76816
-2.76585
-2.76493
-2.76493
1.40229
-0.801094
-0.843185
-0.864702
-0.888068
-1.21856
0
0
0
-6.2909
-7.03428
-7.12096
-7.14377
-7.11174
-7.04036
-6.94479
-6.83684
-6.72478
-6.61412
-6.50841
-6.40984
-6.31967
-6.2385
-6.16649
-6.10345
-6.049
-6.00259
-5.9636
-5.93137
-5.90521
-5.88452
-5.86881
-5.85796
-5.85221
-5.85091
2.24381
-0.391908
-0.445342
-0.468274
-0.488418
-1.02149
0
0
0
-6.21119
-6.7086
-6.71449
-6.68009
-6.616
-6.53633
-6.45069
-6.36515
-6.28343
-6.20775
-6.13943
-6.07915
-6.02714
-5.98329
-5.94721
-5.91836
-5.89606
-5.87958
-5.86816
-5.86107
-5.85759
-5.85705
-5.85885
-5.86271
-5.86947
-5.87399
3.00363
1.5501
0.768895
-0.0767246
-0.121364
-0.845819
0
0
0
-6.15575
-6.45777
-6.3104
-6.16289
-6.04148
-5.94525
-5.86808
-5.80506
-5.75323
-5.7109
-5.6771
-5.65119
-5.63259
-5.62073
-5.61496
-5.61458
-5.61888
-5.62715
-5.63867
-5.65279
-5.66887
-5.68632
-5.70461
-5.72327
-5.74204
-5.75166
3.68351
3.6324
2.84035
1.88573
0.944612
-0.680835
0
0
0
-6.06355
-6.13736
-5.85599
-5.60835
-5.44143
-5.34008
-5.28063
-5.24651
-5.22852
-5.22172
-5.22343
-5.23203
-5.24642
-5.26573
-5.28919
-5.31606
-5.34568
-5.37742
-5.41068
-5.44491
-5.47961
-5.51431
-5.54855
-5.58185
-5.61378
-5.6296
4.28349
4.27103
4.2123
4.0569
3.02747
0.553855
0
0
0
-5.87075
-5.64412
-5.25077
-4.96101
-4.80611
-4.73488
-4.71505
-4.72129
-4.74224
-4.77247
-4.80914
-4.85057
-4.89563
-4.94345
-4.99333
-5.04462
-5.09682
-5.14944
-5.20204
-5.25423
-5.30566
-5.35601
-5.40495
-5.45206
-5.49692
-5.51898
4.80356
4.77737
4.74034
4.67852
4.50356
2.40186
0
0
0
-5.56989
-4.81275
-4.32439
-4.15292
-4.19573
-4.18301
-4.22031
-4.27393
-4.33481
-4.3998
-4.46743
-4.53678
-4.60719
-4.6781
-4.74908
-4.81973
-4.88976
-4.95889
-5.02683
-5.09336
-5.15831
-5.22153
-5.28281
-5.34181
-5.3982
-5.42595
5.24373
1.7771
1.68093
1.54444
1.33092
0.980928
-0.113299
-0.185567
-0.234302
-3.56379
-3.66408
-3.07997
-3.06816
-3.66629
-3.77678
-3.8757
-3.96874
-4.05909
-4.14804
-4.23608
-4.32334
-4.40977
-4.49523
-4.57956
-4.66263
-4.74434
-4.82448
-4.90277
-4.97908
-5.05322
-5.12468
-5.1932
-5.25916
-5.32324
-5.35516
5.604
-2.33542
-2.43116
-2.54932
-2.71089
-2.89236
-3.16399
-3.30538
-3.40708
-3.49363
-3.46902
-3.24851
-3.30886
-3.6046
-3.68564
-3.7762
-3.86691
-3.95709
-4.04713
-4.13732
-4.22765
-4.31787
-4.40765
-4.49668
-4.58443
-4.66992
-4.75233
-4.8315
-4.90724
-4.97955
-5.04904
-5.11631
-5.18147
-5.24464
-5.276
5.88433
-3.33815
-3.37458
-3.38756
-3.39826
-3.40221
-3.41365
-3.41807
-3.4135
-3.40253
-3.38028
-3.33896
-3.39091
-3.51137
-3.59687
-3.68355
-3.77195
-3.86184
-3.95289
-4.04442
-4.13557
-4.22584
-4.31486
-4.40203
-4.48698
-4.57012
-4.6518
-4.73191
-4.81036
-4.88712
-4.96188
-5.03446
-5.10479
-5.17285
-5.20659
6.08462
-3.45674
-3.47985
-3.47138
-3.45636
-3.43571
-3.41468
-3.39526
-3.37721
-3.36198
-3.35177
-3.35365
-3.39175
-3.45989
-3.5339
-3.61228
-3.6942
-3.77867
-3.86482
-3.95224
-4.04065
-4.1296
-4.21853
-4.30713
-4.39512
-4.48206
-4.56759
-4.65149
-4.73356
-4.81366
-4.89164
-4.96737
-5.04081
-5.11193
-5.14721
6.20483
-3.46061
-3.48102
-3.46874
-3.45018
-3.42703
-3.40231
-3.37862
-3.35787
-3.34279
-3.33745
-3.34813
-3.38239
-3.43801
-3.50611
-3.58201
-3.66316
-3.74801
-3.83546
-3.92456
-4.01453
-4.10475
-4.19468
-4.28391
-4.37207
-4.45885
-4.54402
-4.62739
-4.70885
-4.78832
-4.86574
-4.94107
-5.01431
-5.08546
-5.12082
6.24493
-3.47087
-3.49046
-3.47688
-3.45675
-3.43169
-3.40418
-3.37679
-3.35203
-3.33336
-3.32572
-3.33565
-3.36918
-3.42453
-3.49421
-3.57278
-3.65702
-3.74496
-3.83526
-3.92694
-4.01915
-4.11124
-4.20265
-4.29293
-4.3817
-4.4687
-4.55371
-4.63661
-4.71732
-4.79584
-4.87217
-4.94638
-5.01852
-5.08868
-5.12358
6.20485
-3.50092
-3.52065
-3.50691
-3.48582
-3.45873
-3.42831
-3.39681
-3.36584
-3.3382
-3.31931
-3.31952
-3.3541
-3.4196
-3.49935
-3.58635
-3.67731
-3.77043
-3.86464
-3.95916
-4.05337
-4.14677
-4.23893
-4.3295
-4.41818
-4.50476
-4.58908
-4.67105
-4.75063
-4.82786
-4.90279
-4.97553
-5.0462
-5.11494
-5.14916
6.08465
-3.53681
-3.55878
-3.54782
-3.52844
-3.5009
-3.46975
-3.43626
-3.39915
-3.35946
-3.31909
-3.29033
-3.32978
-3.42772
-3.52803
-3.62899
-3.72956
-3.82911
-3.92737
-4.02417
-4.11937
-4.21282
-4.30435
-4.39379
-4.48098
-4.56582
-4.64824
-4.72818
-4.80567
-4.88077
-4.95359
-5.02424
-5.09288
-5.15969
-5.19296
5.88436
-3.45412
-3.48908
-3.49888
-3.50411
-3.49954
-3.49848
-3.48501
-3.45433
-3.40794
-3.33462
-3.21074
-3.28194
-3.48982
-3.61009
-3.72436
-3.83288
-3.93627
-4.0355
-4.13138
-4.22443
-4.31494
-4.40304
-4.48877
-4.57212
-4.65308
-4.73164
-4.80783
-4.88169
-4.95331
-5.02281
-5.09034
-5.15606
-5.22018
-5.25216
5.60403
-2.4714
-2.56517
-2.67944
-2.83524
-3.0083
-3.26865
-3.39405
-3.46402
-3.51749
-3.44016
-2.93256
-3.02453
-3.59939
-3.7205
-3.84911
-3.96744
-4.07576
-4.1764
-4.27125
-4.36155
-4.44813
-4.53149
-4.61198
-4.68981
-4.76516
-4.83816
-4.90892
-4.97756