# vtk DataFile Version 3.0
vtk output272
ASCII
DATASET STRUCTURED_GRID
DIMENSIONS 36 26 1
POINTS 936 float
0 0 0
0.171429 0 0
0.342857 0 0
0.514286 0 0
0.685714 0 0
0.857143 0 0
1.02857 0 0
1.2 0 0
1.37143 0 0
1.54286 0 0
1.71429 0 0
1.88571 0 0
2.05714 0 0
2.22857 0 0
2.4 0 0
2.57143 0 0
2.74286 0 0
2.91429 0 0
3.08571 0 0
3.25714 0 0
3.42857 0 0
3.6 0 0
3.77143 0 0
3.94286 0 0
4.11429 0 0
4.28571 0 0
4.45714 0 0
4.62857 0 0
4.8 0 0
4.97143 0 0
5.14286 0 0
5.31429 0 0
5.48571 0 0
5.65714 0 0
5.82857 0 0
6 0 0
0 0.2 0
0.171429 0.2 0
0.342857 0.2 0
0.514286 0.2 0
0.685714 0.2 0
0.857143 0.2 0
1.02857 0.2 0
1.2 0.2 0
1.37143 0.2 0
1.54286 0.2 0
1.71429 0.2 0
1.88571 0.2 0
2.05714 0.2 0
2.22857 0.2 0
2.4 0.2 0
2.57143 0.2 0
2.74286 0.2 0
2.91429 0.2 0
3.08571 0.2 0
3.25714 0.2 0
3.42857 0.2 0
3.6 0.2 0
3.77143 0.2 0
3.94286 0.2 0
4.11429 0.2 0
4.28571 0.2 0
4.45714 0.2 0
4.62857 0.2 0
4.8 0.2 0
4.97143 0.2 0
5.14286 0.2 0
5.31429 0.2 0
5.48571 0.2 0
5.65714 0.2 0
5.82857 0.2 0
6 0.2 0
0 0.4 0
0.171429 0.4 0
0.342857 0.4 0
0.514286 0.4 0
0.685714 0.4 0
0.857143 0.4 0
1.02857 0.4 0
1.2 0.4 0
1.37143 0.4 0
1.54286 0.4 0
1.71429 0.4 0
1.88571 0.4 0
2.05714 0.4 0
2.22857 0.4 0
2.4 0.4 0
2.57143 0.4 0
2.74286 0.4 0
2.91429 0.4 0
3.08571 0.4 0
3.25714 0.4 0
3.42857 0.4 0
3.6 0.4 0
3.77143 0.4 0
3.94286 0.4 0
4.11429 0.4 0
4.28571 0.4 0
4.45714 0.4 0
4.62857 0.4 0
4.8 0.4 0
4.97143 0.4 0
5.14286 0.4 0
5.31429 0.4 0
5.48571 0.4 0
5.65714 0.4 0
5.82857 0.4 0
6 0.4 0
0 0.6 0
0.171429 0.6 0
0.342857 0.6 0
0.514286 0.6 0
0.685714 0.6 0
0.857143 0.6 0
1.02857 0.6 0
1.2 0.6 0
1.37143 0.6 0
1.54286 0.6 0
1.71429 0.6 0
1.88571 0.6 0
2.05714 0.6 0
2.22857 0.6 0
2.4 0.6 0
2.57143 0.6 0
2.74286 0.6 0
2.91429 0.6 0
3.08571 0.6 0
3.25714 0.6 0
3.42857 0.6 0
3.6 0.6 0
3.77143 0.6 0
3.94286 0.6 0
4.11429 0.6 0
4.28571 0.6 0
4.45714 0.6 0
4.62857 0.6 0
4.8 0.6 0
4.97143 0.6 0
5.14286 0.6 0
5.31429 0.6 0
5.48571 0.6 0
5.65714 0.6 0
5.82857 0.6 0
6 0.6 0
0 0.8 0
0.171429 0.8 0
0.342857 0.8 0
0.514286 0.8 0
0.685714 0.8 0
0.857143 0.8 0
1.02857 0.8 0
1.2 0.8 0
1.37143 0.8 0
1.54286 0.8 0
1.71429 0.8 0
1.88571 0.8 0
2.05714 0.8 0
2.22857 0.8 0
2.4 0.8 0
2.57143 0.8 0
2.74286 0.8 0
2.91429 0.8 0
3.08571 0.8 0
3.25714 0.8 0
3.42857 0.8 0
3.6 0.8 0
3.77143 0.8 0
3.94286 0.8 0
4.11429 0.8 0
4.28571 0.8 0
4.45714 0.8 0
4.62857 0.8 0
4.8 0.8 0
4.97143 0.8 0
5.14286 0.8 0
5.31429 0.8 0
5.48571 0.8 0
5.65714 0.8 0
5.82857 0.8 0
6 0.8 0
0 1 0
0.171429 1 0
0.342857 1 0
0.514286 1 0
0.685714 1 0
0.857143 1 0
1.02857 1 0
1.2 1 0
1.37143 1 0
1.54286 1 0
1.71429 1 0
1.88571 1 0
2.05714 1 0
2.22857 1 0
2.4 1 0
2.57143 1 0
2.74286 1 0
2.91429 1 0
3.08571 1 0
3.25714 1 0
3.42857 1 0
3.6 1 0
3.77143 1 0
3.94286 1 0
4.11429 1 0
4.28571 1 0
4.45714 1 0
4.62857 1 0
4.8 1 0
4.97143 1 0
5.14286 1 0
5.31429 1 0
5.48571 1 0
5.65714 1 0
5.82857 1 0
6 1 0
0 1.2 0
0.171429 1.2 0
0.342857 1.2 0
0.514286 1.2 0
0.685714 1.2 0
0.857143 1.2 0
1.02857 1.2 0
1.2 1.2 0
1.37143 1.2 0
1.54286 1.2 0
1.71429 1.2 0
1.88571 1.2 0
2.05714 1.2 0
2.22857 1.2 0
2.4 1.2 0
2.57143 1.2 0
2.74286 1.2 0
2.91429 1.2 0
3.08571 1.2 0
3.25714 1.2 0
3.42857 1.2 0
3.6 1.2 0
3.77143 1.2 0
3.94286 1.2 0
4.11429 1.2 0
4.28571 1.2 0
4.45714 1.2 0
4.62857 1.2 0
4.8 1.2 0
4.97143 1.2 0
5.14286 1.2 0
5.31429 1.2 0
5.48571 1.2 0
5.65714 1.2 0
5.82857 1.2 0
6 1.2 0
0 1.4 0
0.171429 1.4 0
0.342857 1.4 0
0.514286 1.4 0
0.685714 1.4 0
0.857143 1.4 0
1.02857 1.4 0
1.2 1.4 0
1.37143 1.4 0
1.54286 1.4 0
1.71429 1.4 0
1.88571 1.4 0
2.05714 1.4 0
2.22857 1.4 0
2.4 1.4 0
2.57143 1.4 0
2.74286 1.4 0
2.91429 1.4 0
3.08571 1.4 0
3.25714 1.4 0
3.42857 1.4 0
3.6 1.4 0
3.77143 1.4 0
3.94286 1.4 0
4.11429 1.4 0
4.28571 1.4 0
4.45714 1.4 0
4.62857 1.4 0
4.8 1.4 0
4.97143 1.4 0
5.14286 1.4 0
5.31429 1.4 0
5.48571 1.4 0
5.65714 1.4 0
5.82857 1.4 0
6 1.4 0
0 1.6 0
0.171429 1.6 0
0.342857 1.6 0
0.514286 1.6 0
0.685714 1.6 0
0.857143 1.6 0
1.02857 1.6 0
1.2 1.6 0
1.37143 1.6 0
1.54286 1.6 0
1.71429 1.6 0
1.88571 1.6 0
2.05714 1.6 0
2.22857 1.6 0
2.4 1.6 0
2.57143 1.6 0
2.74286 1.6 0
2.91429 1.6 0
3.08571 1.6 0
3.25714 1.6 0
3.42857 1.6 0
3.6 1.6 0
3.77143 1.6 0
3.94286 1.6 0
4.11429 1.6 0
4.28571 1.6 0
4.45714 1.6 0
4.62857 1.6 0
4.8 1.6 0
4.97143 1.6 0
5.14286 1.6 0
5.31429 1.6 0
5.48571 1.6 0
5.65714 1.6 0
5.82857 1.6 0
6 1.6 0
0 1.8 0
0.171429 1.8 0
0.342857 1.8 0
0.514286 1.8 0
0.685714 1.8 0
0.857143 1.8 0
1.02857 1.8 0
1.2 1.8 0
1.37143 1.8 0
1.54286 1.8 0
1.71429 1.8 0
1.88571 1.8 0
2.05714 1.8 0
2.22857 1.8 0
2.4 1.8 0
2.57143 1.8 0
2.74286 1.8 0
2.91429 1.8 0
3.08571 1.8 0
3.25714 1.8 0
3.42857 1.8 0
3.6 1.8 0
3.77143 1.8 0
3.94286 1.8 0
4.11429 1.8 0
4.28571 1.8 0
4.45714 1.8 0
4.62857 1.8 0
4.8 1.8 0
4.97143 1.8 0
5.14286 1.8 0
5.31429 1.8 0
5.48571 1.8 0
5.65714 1.8 0
5.82857 1.8 0
6 1.8 0
0 2 0
0.171429 2 0
0.342857 2 0
0.514286 2 0
0.685714 2 0
0.857143 2 0
1.02857 2 0
1.2 2 0
1.37143 2 0
1.54286 2 0
1.71429 2 0
1.88571 2 0
2.05714 2 0
2.22857 2 0
2.4 2 0
2.57143 2 0
2.74286 2 0
2.91429 2 0
3.08571 2 0
3.25714 2 0
3.42857 2 0
3.6 2 0
3.77143 2 0
3.94286 2 0
4.11429 2 0
4.28571 2 0
4.45714 2 0
4.62857 2 0
4.8 2 0
4.97143 2 0
5.14286 2 0
5.31429 2 0
5.48571 2 0
5.65714 2 0
5.82857 2 0
6 2 0
0 2.2 0
0.171429 2.2 0
0.342857 2.2 0
0.514286 2.2 0
0.685714 2.2 0
0.857143 2.2 0
1.02857 2.2 0
1.2 2.2 0
1.37143 2.2 0
1.54286 2.2 0
1.71429 2.2 0
1.88571 2.2 0
2.05714 2.2 0
2.22857 2.2 0
2.4 2.2 0
2.57143 2.2 0
2.74286 2.2 0
2.91429 2.2 0
3.08571 2.2 0
3.25714 2.2 0
3.42857 2.2 0
3.6 2.2 0
3.77143 2.2 0
3.94286 2.2 0
4.11429 2.2 0
4.28571 2.2 0
4.45714 2.2 0
4.62857 2.2 0
4.8 2.2 0
4.97143 2.2 0
5.14286 2.2 0
5.31429 2.2 0
5.48571 2.2 0
5.65714 2.2 0
5.82857 2.2 0
6 2.2 0
0 2.4 0
0.171429 2.4 0
0.342857 2.4 0
0.514286 2.4 0
0.685714 2.4 0
0.857143 2.4 0
1.02857 2.4 0
1.2 2.4 0
1.37143 2.4 0
1.54286 2.4 0
1.71429 2.4 0
1.88571 2.4 0
2.05714 2.4 0
2.22857 2.4 0
2.4 2.4 0
2.57143 2.4 0
2.74286 2.4 0
2.91429 2.4 0
3.08571 2.4 0
3.25714 2.4 0
3.42857 2.4 0
3.6 2.4 0
3.77143 2.4 0
3.94286 2.4 0
4.11429 2.4 0
4.28571 2.4 0
4.45714 2.4 0
4.62857 2.4 0
4.8 2.4 0
4.97143 2.4 0
5.14286 2.4 0
5.31429 2.4 0
5.48571 2.4 0
5.65714 2.4 0
5.82857 2.4 0
6 2.4 0
0 2.6 0
0.171429 2.6 0
0.342857 2.6 0
0.514286 2.6 0
0.685714 2.6 0
0.857143 2.6 0
1.02857 2.6 0
1.2 2.6 0
1.37143 2.6 0
1.54286 2.6 0
1.71429 2.6 0
1.88571 2.6 0
2.05714 2.6 0
2.22857 2.6 0
2.4 2.6 0
2.57143 2.6 0
2.74286 2.6 0
2.91429 2.6 0
3.08571 2.6 0
3.25714 2.6 0
3.42857 2.6 0
3.6 2.6 0
3.77143 2.6 0
3.94286 2.6 0
4.11429 2.6 0
4.28571 2.6 0
4.45714 2.6 0
4.62857 2.6 0
4.8 2.6 0
4.97143 2.6 0
5.14286 2.6 0
5.31429 2.6 0
5.48571 2.6 0
5.65714 2.6 0
5.82857 2.6 0
6 2.6 0
0 2.8 0
0.171429 2.8 0
0.342857 2.8 0
0.514286 2.8 0
0.685714 2.8 0
0.857143 2.8 0
1.02857 2.8 0
1.2 2.8 0
1.37143 2.8 0
1.54286 2.8 0
1.71429 2.8 0
1.88571 2.8 0
2.05714 2.8 0
2.22857 2.8 0
2.4 2.8 0
2.57143 2.8 0
2.74286 2.8 0
2.91429 2.8 0
3.08571 2.8 0
3.25714 2.8 0
3.42857 2.8 0
3.6 2.8 0
3.77143 2.8 0
3.94286 2.8 0
4.11429 2.8 0
4.28571 2.8 0
4.45714 2.8 0
4.62857 2.8 0
4.8 2.8 0
4.97143 2.8 0
5.14286 2.8 0
5.31429 2.8 0
5.48571 2.8 0
5.65714 2.8 0
5.82857 2.8 0
6 2.8 0
0 3 0
0.171429 3 0
0.342857 3 0
0.514286 3 0
0.685714 3 0
0.857143 3 0
1.02857 3 0
1.2 3 0
1.37143 3 0
1.54286 3 0
1.71429 3 0
1.88571 3 0
2.05714 3 0
2.22857 3 0
2.4 3 0
2.57143 3 0
2.74286 3 0
2.91429 3 0
3.08571 3 0
3.25714 3 0
3.42857 3 0
3.6 3 0
3.77143 3 0
3.94286 3 0
4.11429 3 0
4.28571 3 0
4.45714 3 0
4.62857 3 0
4.8 3 0
4.97143 3 0
5.14286 3 0
5.31429 3 0
5.48571 3 0
5.65714 3 0
5.82857 3 0
6 3 0
0 3.2 0
0.171429 3.2 0
0.342857 3.2 0
0.514286 3.2 0
0.685714 3.2 0
0.857143 3.2 0
1.02857 3.2 0
1.2 3.2 0
1.37143 3.2 0
1.54286 3.2 0
1.71429 3.2 0
1.88571 3.2 0
2.05714 3.2 0
2.22857 3.2 0
2.4 3.2 0
2.57143 3.2 0
2.74286 3.2 0
2.91429 3.2 0
3.08571 3.2 0
3.25714 3.2 0
3.42857 3.2 0
3.6 3.2 0
3.77143 3.2 0
3.94286 3.2 0
4.11429 3.2 0
4.28571 3.2 0
4.45714 3.2 0
4.62857 3.2 0
4.8 3.2 0
4.97143 3.2 0
5.14286 3.2 0
5.31429 3.2 0
5.48571 3.2 0
5.65714 3.2 0
5.82857 3.2 0
6 3.2 0
0 3.4 0
0.171429 3.4 0
0.342857 3.4 0
0.514286 3.4 0
0.685714 3.4 0
0.857143 3.4 0
1.02857 3.4 0
1.2 3.4 0
1.37143 3.4 0
1.54286 3.4 0
1.71429 3.4 0
1.88571 3.4 0
2.05714 3.4 0
2.22857 3.4 0
2.4 3.4 0
2.57143 3.4 0
2.74286 3.4 0
2.91429 3.4 0
3.08571 3.4 0
3.25714 3.4 0
3.42857 3.4 0
3.6 3.4 0
3.77143 3.4 0
3.94286 3.4 0
4.11429 3.4 0
4.28571 3.4 0
4.45714 3.4 0
4.62857 3.4 0
4.8 3.4 0
4.97143 3.4 0
5.14286 3.4 0
5.31429 3.4 0
5.48571 3.4 0
5.65714 3.4 0
5.82857 3.4 0
6 3.4 0
0 3.6 0
0.171429 3.6 0
0.342857 3.6 0
0.514286 3.6 0
0.685714 3.6 0
0.857143 3.6 0
1.02857 3.6 0
1.2 3.6 0
1.37143 3.6 0
1.54286 3.6 0
1.71429 3.6 0
1.88571 3.6 0
2.05714 3.6 0
2.22857 3.6 0
2.4 3.6 0
2.57143 3.6 0
2.74286 3.6 0
2.91429 3.6 0
3.08571 3.6 0
3.25714 3.6 0
3.42857 3.6 0
3.6 3.6 0
3.77143 3.6 0
3.94286 3.6 0
4.11429 3.6 0
4.28571 3.6 0
4.45714 3.6 0
4.62857 3.6 0
4.8 3.6 0
4.97143 3.6 0
5.14286 3.6 0
5.31429 3.6 0
5.48571 3.6 0
5.65714 3.6 0
5.82857 3.6 0
6 3.6 0
0 3.8 0
0.171429 3.8 0
0.342857 3.8 0
0.514286 3.8 0
0.685714 3.8 0
0.857143 3.8 0
1.02857 3.8 0
1.2 3.8 0
1.37143 3.8 0
1.54286 3.8 0
1.71429 3.8 0
1.88571 3.8 0
2.05714 3.8 0
2.22857 3.8 0
2.4 3.8 0
2.57143 3.8 0
2.74286 3.8 0
2.91429 3.8 0
3.08571 3.8 0
3.25714 3.8 0
3.42857 3.8 0
3.6 3.8 0
3.77143 3.8 0
3.94286 3.8 0
4.11429 3.8 0
4.28571 3.8 0
4.45714 3.8 0
4.62857 3.8 0
4.8 3.8 0
4.97143 3.8 0
5.14286 3.8 0
5.31429 3.8 0
5.48571 3.8 0
5.65714 3.8 0
5.82857 3.8 0
6 3.8 0
0 4 0
0.171429 4 0
0.342857 4 0
0.514286 4 0
0.685714 4 0
0.857143 4 0
1.02857 4 0
1.2 4 0
1.37143 4 0
1.54286 4 0
1.71429 4 0
1.88571 4 0
2.05714 4 0
2.22857 4 0
2.4 4 0
2.57143 4 0
2.74286 4 0
2.91429 4 0
3.08571 4 0
3.25714 4 0
3.42857 4 0
3.6 4 0
3.77143 4 0
3.94286 4 0
4.11429 4 0
4.28571 4 0
4.45714 4 0
4.62857 4 0
4.8 4 0
4.97143 4 0
5.14286 4 0
5.31429 4 0
5.48571 4 0
5.65714 4 0
5.82857 4 0
6 4 0
0 4.2 0
0.171429 4.2 0
0.342857 4.2 0
0.514286 4.2 0
0.685714 4.2 0
0.857143 4.2 0
1.02857 4.2 0
1.2 4.2 0
1.37143 4.2 0
1.54286 4.2 0
1.71429 4.2 0
1.88571 4.2 0
2.05714 4.2 0
2.22857 4.2 0
2.4 4.2 0
2.57143 4.2 0
2.74286 4.2 0
2.91429 4.2 0
3.08571 4.2 0
3.25714 4.2 0
3.42857 4.2 0
3.6 4.2 0
3.77143 4.2 0
3.94286 4.2 0
4.11429 4.2 0
4.28571 4.2 0
4.45714 4.2 0
4.62857 4.2 0
4.8 4.2 0
4.97143 4.2 0
5.14286 4.2 0
5.31429 4.2 0
5.48571 4.2 0
5.65714 4.2 0
5.82857 4.2 0
6 4.2 0
0 4.4 0
0.171429 4.4 0
0.342857 4.4 0
0.514286 4.4 0
0.685714 4.4 0
0.857143 4.4 0
1.02857 4.4 0
1.2 4.4 0
1.37143 4.4 0
1.54286 4.4 0
1.71429 4.4 0
1.88571 4.4 0
2.05714 4.4 0
2.22857 4.4 0
2.4 4.4 0
2.57143 4.4 0
2.74286 4.4 0
2.91429 4.4 0
3.08571 4.4 0
3.25714 4.4 0
3.42857 4.4 0
3.6 4.4 0
3.77143 4.4 0
3.94286 4.4 0
4.11429 4.4 0
4.28571 4.4 0
4.45714 4.4 0
4.62857 4.4 0
4.8 4.4 0
4.97143 4.4 0
5.14286 4.4 0
5.31429 4.4 0
5.48571 4.4 0
5.65714 4.4 0
5.82857 4.4 0
6 4.4 0
0 4.6 0
0.171429 4.6 0
0.342857 4.6 0
0.514286 4.6 0
0.685714 4.6 0
0.857143 4.6 0
1.02857 4.6 0
1.2 4.6 0
1.37143 4.6 0
1.54286 4.6 0
1.71429 4.6 0
1.88571 4.6 0
2.05714 4.6 0
2.22857 4.6 0
2.4 4.6 0
2.57143 4.6 0
2.74286 4.6 0
2.91429 4.6 0
3.08571 4.6 0
3.25714 4.6 0
3.42857 4.6 0
3.6 4.6 0
3.77143 4.6 0
3.94286 4.6 0
4.11429 4.6 0
4.28571 4.6 0
4.45714 4.6 0
4.62857 4.6 0
4.8 4.6 0
4.97143 4.6 0
5.14286 4.6 0
5.31429 4.6 0
5.48571 4.6 0
5.65714 4.6 0
5.82857 4.6 0
6 4.6 0
0 4.8 0
0.171429 4.8 0
0.342857 4.8 0
0.514286 4.8 0
0.685714 4.8 0
0.857143 4.8 0
1.02857 4.8 0
1.2 4.8 0
1.37143 4.8 0
1.54286 4.8 0
1.71429 4.8 0
1.88571 4.8 0
2.05714 4.8 0
2.22857 4.8 0
2.4 4.8 0
2.57143 4.8 0
2.74286 4.8 0
2.91429 4.8 0
3.08571 4.8 0
3.25714 4.8 0
3.42857 4.8 0
3.6 4.8 0
3.77143 4.8 0
3.94286 4.8 0
4.11429 4.8 0
4.28571 4.8 0
4.45714 4.8 0
4.62857 4.8 0
4.8 4.8 0
4.97143 4.8 0
5.14286 4.8 0
5.31429 4.8 0
5.48571 4.8 0
5.65714 4.8 0
5.82857 4.8 0
6 4.8 0
0 5 0
0.171429 5 0
0.342857 5 0
0.514286 5 0
0.685714 5 0
0.857143 5 0
1.02857 5 0
1.2 5 0
1.37143 5 0
1.54286 5 0
1.71429 5 0
1.88571 5 0
2.05714 5 0
2.22857 5 0
2.4 5 0
2.57143 5 0
2.74286 5 0
2.91429 5 0
3.08571 5 0
3.25714 5 0
3.42857 5 0
3.6 5 0
3.77143 5 0
3.94286 5 0
4.11429 5 0
4.28571 5 0
4.45714 5 0
4.62857 5 0
4.8 5 0
4.97143 5 0
5.14286 5 0
5.31429 5 0
5.48571 5 0
5.65714 5 0
5.82857 5 0
6 5 0

CELL_DATA 875
SCALARS phi float
LOOKUP_TABLE default 
4.711
4.711
4.711
4.711
4.711
4.711
4.711
4.711
4.711
4.711
4.711
4.711
4.711
4.711
4.711
4.711
4.711
4.711
4.711
4.711
4.711
4.711
4.711
4.711
4.711
4.711
4.711
4.711
4.711
4.711
4.711
4.711
4.711
4.711
4.711
4.711
4.711
4.711
4.711
4.711
4.711
4.711
4.711
4.711
4.711
4.711
4.711
4.711
4.711
4.711
4.711
4.711
4.711
4.711
4.711
4.711
4.711
4.711
4.711
4.711
4.711
4.711
4.711
4.711
4.711
4.711
4.711
4.711
4.711
4.711
4.711
4.711
4.711
4.711
4.711
4.711
4.711
4.711
4.711
4.711
4.711
4.711
4.711
4.711
4.711
4.711
4.711
4.711
4.711
4.711
4.711
4.711
4.711
4.711
4.711
4.711
4.711
4.711
4.711
4.711
4.711
4.711
4.711
4.711
4.711
4.711
4.711
4.711
4.711
4.711
4.711
4.711
4.711
4.711
4.711
4.711
4.711
4.711
4.711
4.711
4.711
4.711
4.711
4.711
4.711
4.711
4.711
4.711
4.711
4.711
4.711
4.711
4.711
4.711
4.711
4.711
4.711
4.711
4.711
4.711
4.711
4.711
4.711
4.711
4.711
4.711
4.711
4.711
4.711
4.711
4.711
4.711
4.711
4.711
4.711
4.711
4.711
4.711
4.711
4.711
4.711
4.711
4.711
4.711
4.711
4.711
4.711
4.711
4.711
4.711
4.711
4.711
4.711
4.711
4.711
4.711
4.711
4.711
4.711
4.711
4.711
4.711
4.711
4.711
4.711
4.711
4.711
4.711
4.711
4.711
4.711
4.711
4.711
4.711
4.711
4.711
4.711
4.711
4.711
4.711
4.711
4.711
4.711
4.711
4.711
4.711
4.711
4.711
4.711
4.711
4.711
4.711
4.711
4.711
4.711
4.711
4.711
4.711
4.711
4.711
4.711
4.711
4.711
4.711
4.711
4.711
4.711
4.711
4.711
4.711
4.711
4.711
4.711
4.711
4.711
4.711
4.711
4.711
4.711
4.711
4.711
4.711
4.711
4.711
4.711
4.711
4.711
4.711
4.711
4.711
4.711
4.711
4.711
4.711
4.711
4.711
4.711
4.711
4.711
4.711
4.711
4.711
4.711
4.711
4.711
4.711
4.711
4.711
4.711
4.711
4.711
4.711
4.711
4.711
4.711
4.711
4.711
4.711
4.711
4.711
4.711
4.711
4.711
4.711
4.711
4.711
4.711
4.711
4.711
4.711
4.711
4.711
4.711
4.711
4.711
4.711
4.711
4.711
4.711
4.711
4.711
4.711
4.711
4.711
4.711
4.711
4.711
4.711
4.711
4.711
4.711
4.711
4.711
4.711
4.711
4.711
4.711
4.711
4.711
4.711
4.711
4.711
4.711
4.711
4.711
4.711
4.711
4.711
4.711
4.711
4.711
4.711
4.711
4.711
4.711
4.711
4.711
4.711
4.711
4.711
4.711
4.711
4.711
4.711
4.711
4.711
4.711
4.711
4.711
4.711
4.711
4.711
4.711
4.711
4.711
4.711
4.711
4.711
4.711
4.711
4.711
4.711
4.711
4.711
4.711
4.711
4.711
4.711
4.711
4.711
4.711
4.711
4.711
4.711
4.711
4.711
4.711
4.711
4.711
4.711
4.711
4.711
4.711
4.711
4.711
4.711
4.711
4.711
4.711
4.711
4.711
4.711
4.711
4.711
4.711
4.711
4.711
4.711
4.711
4.711
4.711
4.711
4.711
4.711
4.711
4.711
4.711
4.711
4.711
4.711
4.711
4.711
4.711
4.711
4.711
4.711
4.711
4.711
4.711
4.711
4.711
4.711
4.711
4.711
4.711
4.711
4.711
4.711
4.711
4.711
4.711
4.711
4.711
4.711
4.711
4.711
4.711
4.711
4.711
4.711
4.711
4.711
4.711
4.711
4.711
4.711
4.711
4.711
4.711
4.711
4.711
4.711
4.711
4.711
4.711
4.711
4.711
4.711
4.711
4.711
4.711
4.711
4.711
4.711
4.711
4.711
4.711
4.711
4.711
4.711
4.711
4.711
4.711
4.711
4.711
4.711
4.711
4.711
4.711
4.711
4.711
4.711
4.711
4.711
4.711
4.711
4.711
4.711
4.711
4.711
4.711
4.711
4.711
4.711
4.711
4.711
4.711
4.711
4.711
4.711
4.711
4.711
4.711
4.711
4.711
4.711
4.711
4.711
4.711
4.711
4.711
4.711
4.711
4.711
4.711
4.711
4.711
4.711
4.711
4.711
4.711
4.711
4.711
4.711
4.711
4.711
4.711
4.711
4.711
4.711
4.711
4.711
4.711
4.711
4.711
4.711
4.711
4.711
4.711
4.711
4.711
4.711
4.711
4.711
4.711
4.711
4.711
4.711
4.711
4.711
4.711
4.711
4.711
4.711
4.711
4.711
4.711
4.711
4.711
4.711
4.711
4.711
4.711
4.711
4.711
4.711
4.711
4.711
4.711
4.711
4.711
4.711
4.711
4.711
4.711
4.711
4.711
4.711
4.711
4.711
4.711
4.711
4.711
4.711
4.711
4.711
4.711
4.711
4.711
4.711
4.711
4.711
4.711
4.711
4.711
4.711
4.711
4.711
4.711
4.711
4.711
4.711
4.711
4.711
4.711
4.711
4.711
4.711
4.711
4.711
4.711
4.711
4.711
4.711
4.711
4.711
4.711
4.711
4.711
4.711
4.711
4.711
4.711
4.711
4.711
4.711
4.711
4.711
4.711
4.711
4.711
4.711
4.711
4.711
4.711
4.711
4.711
4.711
4.711
4.711
4.711
4.711
4.711
4.711
4.711
4.711
4.711
4.711
4.711
4.711
4.711
4.711
4.711
4.711
4.711
4.711
4.711
4.711
4.711
4.711
4.711
4.711
4.711
4.711
4.711
4.711
4.711
4.711
4.711
4.711
4.711
4.711
4.711
4.711
4.711
4.711
4.711
4.711
4.711
4.711
4.711
4.711
4.711
4.711
4.711
4.711
4.711
4.711
4.711
4.711
4.711
4.711
4.711
4.711
4.711
4.711
4.711
4.711
4.711
4.711
4.711
4.711
4.711
4.711
4.711
4.711
4.711
4.711
4.711
4.711
4.711
4.711
4.711
4.711
4.711
4.711
4.711
4.711
4.711
4.711
4.711
4.711
4.711
4.711
4.711
4.711
4.711
4.711
4.711
4.711
4.711
4.711
4.711
4.711
4.711
4.711
4.711
4.711
4.711
4.711
4.711
4.711
4.711
4.711
4.711
4.711
4.711
4.711
4.711
4.711
4.711
4.711
4.711
4.711
4.711
4.711
4.711
4.711
4.711
4.711
4.711
4.711
4.711
4.711
4.711
4.711
4.711
4.711
4.711
4.711
4.711
4.711
4.711
4.711
4.711
4.711
4.711
4.711
4.711
4.711
4.711
4.711
4.711
4.711
4.711
4.711
4.711
4.711
4.711
4.711
4.711
4.711
4.711
4.711
4.711
4.711
4.711
4.711
4.711
4.711
4.711
4.711
4.711
4.711
4.711
4.711
4.711
4.711
4.711
4.711
4.711
4.711
4.711
4.711
4.711
4.711
4.711
4.711
4.711
4.711
4.711
4.711
4.711
4.711
4.711
4.711
4.711
4.711
4.711
4.711
4.711
4.711
4.711
4.711
4.711
4.711
4.711
4.711
4.711
4.711
4.711
4.711
4.711
4.711
4.711
4.711
4.711
4.711
4.711
4.711
4.711
4.711
4.711
4.711
4.711
4.711
4.711
4.711
4.711
4.711
4.711
4.711
4.711
4.711
4.711
4.711
4.711
4.711
4.711
4.711
4.711
4.711
4.711
4.711
4.711

SCALARS p float
LOOKUP_TABLE default 
-1711.78
-1711.78
-1710.91
-1707.1
-1701.04
-1701.04
0
0
0
-5100.83
-5100.83
-5046.33
-4876.52
-4588.15
-4211.73
-3786.38
-3345.99
-2915.05
-2509.26
-2137.47
-1803.83
-1509.19
-1252.33
-1030.69
-841.013
-679.776
-543.302
-428.114
-331.007
-249.104
-179.882
-121.165
-71.1083
-28.1164
10
-1711.78
-1711.78
-1710.91
-1707.1
-1701.04
-1701.04
0
0
0
-5100.83
-5100.83
-5046.33
-4876.52
-4588.15
-4211.73
-3786.38
-3345.99
-2915.05
-2509.26
-2137.47
-1803.83
-1509.19
-1252.33
-1030.69
-841.013
-679.776
-543.302
-428.114
-331.007
-249.104
-179.882
-121.165
-71.1083
-28.1164
10
-1718.42
-1718.42
-1717.21
-1712.72
-1704.75
-1704.75
0
0
0
-5105.18
-5105.18
-5048.59
-4878.09
-4584.91
-4202.26
-3772.27
-3329.77
-2898.87
-2494.55
-2125.01
-1793.91
-1501.8
-1247.26
-1027.64
-839.632
-679.669
-544.123
-429.567
-332.843
-251.121
-181.914
-123.066
-72.7292
-29.2603
10
-1736.84
-1736.84
-1735.57
-1730.06
-1719.69
-1719.69
0
0
0
-5127.45
-5127.45
-5036.86
-4837.56
-4529.13
-4142.45
-3715.4
-3279.56
-2856.96
-2461.24
-2099.83
-1775.93
-1489.9
-1240.27
-1024.43
-839.195
-681.124
-546.748
-432.79
-336.227
-254.338
-184.727
-125.305
-74.2719
-30.04
10
-1773.26
-1773.26
-1772.29
-1766.26
-1754.01
-1754.01
0
0
0
-5228.26
-5228.26
-5063.57
-4801.7
-4461.28
-4063.99
-3638.81
-3211.73
-2801.07
-2418.03
-2068.53
-1755.03
-1477.53
-1234.55
-1023.61
-841.747
-685.779
-552.492
-438.851
-342.035
-259.494
-188.967
-128.473
-76.3028
-30.9604
10
-1832.74
-1832.74
-1833.04
-1828.36
-1816.13
-1816.13
0
0
0
-5503.71
-5503.71
-5226.43
-4852.11
-4451.38
-4017.32
-3576.27
-3149.03
-2747.13
-2376.5
-2039.78
-1737.7
-1469.59
-1233.76
-1027.9
-849.314
-695.147
-562.505
-448.641
-350.983
-267.183
-195.144
-133.014
-79.1876
-32.265
10
-1917.5
-1917.5
-1921.24
-1922.57
-1916.27
-1916.27
0
0
0
-5962.5
-5962.5
-5844.52
-5221.18
-4626.1
-4056.26
-3552.83
-3106.88
-2706.83
-2346.01
-2020.95
-1729.61
-1470.23
-1240.89
-1039.39
-863.335
-710.221
-577.485
-462.683
-363.491
-277.771
-203.586
-139.217
-83.1605
-34.0997
10
-2024.44
-2024.44
-2035.31
-2052.47
-2072.53
-2072.53
-2772.88
-2965.43
-3156.97
-3351.92
-3560.89
-3807.47
-7275.28
-5106.98
-4145.68
-3541.5
-3075.49
-2679.38
-2329.06
-2015.08
-1733.29
-1481.26
-1257.05
-1058.67
-884.069
-731.066
-597.419
-480.956
-379.572
-291.317
-214.404
-147.228
-88.3713
-36.5748
10
-2142.5
-2142.5
-2163.22
-2206.01
-2286.36
-2456.16
-2772.88
-2965.43
-3156.97
-3351.92
-3560.89
-3807.47
-5121.88
-4504.49
-3926.13
-3440.67
-3023.63
-2654.36
-2321.76
-2020.38
-1747.58
-1501.7
-1281.29
-1084.87
-910.712
-756.982
-621.738
-503.056
-398.963
-307.685
-227.577
-157.127
-94.9879
-39.8654
10
-2253.72
-2253.72
-2280.34
-2335.26
-2427.98
-2573.33
-2772.88
-2965.43
-3156.97
-3351.92
-3560.89
-3807.47
-4097.47
-3960.66
-3656.61
-3309.63
-2963.66
-2633.18
-2323.25
-2035.76
-1771.56
-1530.77
-1312.97
-1117.44
-942.82
-787.579
-650.114
-528.779
-421.475
-326.732
-243.041
-168.95
-103.064
-44.158
10
-2343.2
-2343.2
-2371.69
-2429.33
-2519.87
-2646.41
-2804.58
-2974.96
-3150.09
-3325.22
-3494.76
-3645.86
-3741.51
-3672.97
-3479.06
-3217.26
-2926.58
-2629.89
-2340.08
-2064.35
-1806.7
-1569.06
-1351.99
-1154.86
-977.236
-818.277
-676.56
-550.571
-439.147
-340.573
-253.314
-175.952
-107.196
-45.7782
10
-2401.83
-2401.83
-2430.38
-2487.6
-2574.56
-2690.96
-2832.51
-2989.76
-3153.93
-3315.67
-3462.29
-3573.7
-3618.75
-3560.93
-3407.79
-3186.23
-2924.81
-2646.17
-2366.16
-2094.84
-1838.31
-1599.89
-1381.08
-1182.33
-1002.99
-841.997
-697.988
-569.576
-455.377
-353.907
-263.73
-183.497
-111.974
-48.0137
10
-2424.8
-2424.8
-2453.23
-2510.23
-2596.27
-2710.58
-2849.46
-3005.76
-3171.01
-3334.98
-3483.13
-3593.69
-3637.16
-3585.61
-3441.35
-3226.83
-2969.17
-2691.51
-2410.63
-2137.4
-1878.45
-1637.37
-1415.78
-1214.03
-1031.61
-867.512
-720.429
-588.98
-471.73
-367.237
-274.108
-191.034
-116.817
-50.3515
10
-2410.33
-2410.33
-2439.47
-2498.07
-2587.55
-2708.16
-2856.52
-3024.16
-3203.46
-3386.15
-3560.5
-3707.17
-3786.97
-3743.96
-3586.96
-3351.54
-3073.03
-2777.72
-2482.83
-2198.66
-1931.09
-1683.04
-1455.64
-1248.85
-1061.95
-893.805
-743.008
-608.106
-487.606
-380.043
-284.015
-198.214
-121.448
-52.6129
10
-2359.09
-2359.09
-2388.65
-2448.8
-2543.96
-2678.44
-2849.8
-3040.7
-3246.26
-3464.32
-3690.72
-3917.59
-4111.59
-4070.49
-3860.45
-3564.12
-3234.91
-2901.89
-2579.95
-2276.32
-1994.45
-1735.55
-1499.62
-1285.92
-1093.26
-920.208
-765.144
-626.473
-502.596
-391.975
-293.16
-204.805
-125.693
-54.6973
10
-2275.06
-2275.06
-2302.91
-2360.72
-2458.92
-2614.24
-2831.5
-3052.53
-3288.19
-3548.56
-3844.27
-4225.15
-4784.64
-4655.97
-4284.68
-3859.85
-3443.78
-3054.09
-2694.65
-2365.33
-2065.1
-1792.54
-1546.09
-1324.06
-1124.64
-946.012
-786.277
-643.638
-516.348
-402.758
-301.328
-210.649
-129.446
-56.5527
10
-2167.19
-2167.19
-2188.91
-2234.03
-2318.89
-2498.26
-2831.5
-3052.53
-3288.19
-3548.56
-3844.27
-4225.15
-6589.06
-5652.99
-4844.18
-4200.16
-3669.57
-3214.82
-2814.84
-2458.11
-2138.13
-1850.7
-1592.71
-1361.54
-1154.8
-970.236
-805.651
-659.02
-528.416
-412.049
-308.27
-215.571
-132.603
-58.1302
10
-2050.8
-2050.8
-2062.22
-2080.47
-2101.87
-2101.87
-2831.5
-3052.53
-3288.19
-3844.27
-3844.27
-4225.15
-10089.9
-6735.57
-5321.99
-4480.92
-3864.61
-3361.45
-2928.87
-2547.98
-2209.27
-1907.03
-1637.25
-1396.65
-1182.37
-991.777
-822.381
-671.908
-538.235
-419.41
-313.65
-219.334
-135.012
-59.3569
10
-1944.6
-1944.6
-1948.59
-1950.35
-1944.47
-1944.47
0
0
0
-8527.17
-8527.17
-8622.15
-7196.06
-6177.74
-5308.62
-4595.27
-3997.92
-3483.59
-3032.32
-2632.4
-2276.62
-1959.93
-1678.25
-1428.09
-1206.2
-1009.65
-835.613
-681.574
-545.19
-424.329
-317.059
-221.629
-136.466
-60.1268
10
-1860.15
-1860.15
-1860.55
-1856.02
-1843.93
-1843.93
0
0
0
-7723.11
-7723.11
-7288.11
-6598.6
-5934.84
-5285.87
-4671.9
-4106.06
-3591.68
-3127.64
-2711.2
-2339.2
-2008.16
-1714.52
-1454.73
-1225.29
-1022.94
-844.545
-687.306
-548.648
-426.248
-318.016
-222.065
-136.686
-60.2905
10
-1800.78
-1800.78
-1799.85
-1793.88
-1781.67
-1781.67
0
0
0
-7166.96
-7166.96
-6855.93
-6409.54
-5890.44
-5331.49
-4763.48
-4211.79
-3692.84
-3215.34
-2782.6
-2394.65
-2049.54
-1744.19
-1475.05
-1238.4
-1030.64
-848.319
-688.353
-547.929
-424.539
-315.943
-220.132
-135.274
-59.6204
10
-1764.41
-1764.41
-1763.15
-1757.66
-1747.31
-1747.31
0
0
0
-6891.46
-6891.46
-6693.15
-6366.45
-5927.68
-5413.19
-4863.18
-4311.67
-3782.55
-3290.16
-2841.44
-2438.53
-2080.46
-1764.48
-1486.95
-1243.94
-1031.52
-845.967
-683.9
-542.298
-418.491
-310.129
-215.132
-131.616
-57.7209
10
-1746
-1746
-1744.8
-1740.31
-1732.35
-1732.35
0
0
0
-6774.05
-6774.05
-6637.6
-6376.3
-5983.72
-5492.11
-4947.17
-4389.65
-3848.81
-3342.59
-2880.2
-2464.96
-2096.44
-1772.02
-1487.98
-1240.13
-1024.3
-836.5
-673.143
-531.026
-407.361
-299.744
-206.12
-124.704
-53.793
10
-1739.37
-1739.37
-1738.5
-1734.69
-1728.64
-1728.64
0
0
0
-6734.28
-6734.28
-6625.75
-6394.13
-6021.71
-5538.23
-4992.23
-4428.23
-3878.42
-3362.68
-2891.31
-2468.24
-2093.26
-1763.78
-1475.96
-1225.47
-1007.95
-819.237
-655.59
-513.689
-390.67
-284.117
-192.061
-113.009
-46.0301
10
-1739.37
-1739.37
-1738.5
-1734.69
-1728.64
-1728.64
0
0
0
-6734.28
-6734.28
-6625.75
-6394.13
-6021.71
-5538.23
-4992.23
-4428.23
-3878.42
-3362.68
-2891.31
-2468.24
-2093.26
-1763.78
-1475.96
-1225.47
-1007.95
-819.237
-655.59
-513.689
-390.67
-284.117
-192.061
-113.009
-46.0301
10

SCALARS  u float
LOOKUP_TABLE default 
0.3625
-0.759524
-0.776831
-0.782138
-0.786337
-0.79175
0
0
0
-2.35229
-2.75549
-2.76475
-2.75897
-2.73508
-2.69507
-2.64364
-2.5857
-2.52533
-2.46555
-2.40844
-2.35533
-2.30702
-2.26393
-2.22616
-2.19362
-2.16605
-2.14313
-2.12446
-2.10964
-2.09824
-2.08987
-2.08413
-2.08067
-2.07916
-2.07916
1.40229
-0.854699
-0.897269
-0.919644
-0.94409
-1.27567
0
0
0
-4.76818
-5.60081
-5.66137
-5.65518
-5.60232
-5.5141
-5.40225
-5.27753
-5.14843
-5.02107
-4.89965
-4.78686
-4.68429
-4.59271
-4.51222
-4.44257
-4.38329
-4.33369
-4.29286
-4.25989
-4.23382
-4.21376
-4.19883
-4.18823
-4.18144
-4.1795
2.24381
-0.451974
-0.505442
-0.523307
-0.544373
-1.0785
0
0
0
-4.74857
-5.37587
-5.29052
-5.19795
-5.09699
-4.98993
-4.88097
-4.77385
-4.6715
-4.57607
-4.48912
-4.41159
-4.34399
-4.28637
-4.23844
-4.19964
-4.16925
-4.14644
-4.13031
-4.11995
-4.11449
-4.11312
-4.11516
-4.12006
-4.12768
-4.13261
3.00363
1.50817
-0.0176927
-0.145049
-0.182543
-0.902679
0
0
0
-4.67263
-5.11461
-4.91238
-4.71265
-4.54772
-4.41729
-4.31245
-4.22564
-4.15242
-4.09041
-4.03842
-3.99577
-3.96199
-3.93654
-3.91884
-3.90818
-3.90381
-3.90494
-3.91077
-3.92054
-3.93353
-3.9491
-3.96672
-3.98595
-4.00655
-4.0176
3.68351
3.62316
2.0556
1.80247
0.202935
-0.746783
0
0
0
-4.56275
-4.78594
-4.46649
-4.17558
-3.96706
-3.83168
-3.74496
-3.68748
-3.64865
-3.62283
-3.60699
-3.59938
-3.59887
-3.60463
-3.61588
-3.6319
-3.65201
-3.67553
-3.70182
-3.73028
-3.76039
-3.79166
-3.82369
-3.85611
-3.8887
-3.90543
4.28349
4.27067
4.18008
4.01057
2.24863
0.141371
0
0
0
-4.31889
-4.25716
-3.85458
-3.54897
-3.35777
-3.24981
-3.20323
-3.18729
-3.18858
-3.20071
-3.22045
-3.24593
-3.27602
-3.30987
-3.34683
-3.3863
-3.42776
-3.47074
-3.51477
-3.55948
-3.60449
-3.64949
-3.69417
-3.73828
-3.78159
-3.80346
4.80356
4.79503
4.77377
4.72345
4.47674
2.01679
0
0
0
-3.98555
-3.35715
-2.87017
-2.73727
-2.78445
-2.725
-2.73405
-2.76589
-2.80769
-2.8549
-2.90553
-2.95852
-3.01325
-3.06926
-3.12622
-3.1838
-3.24173
-3.29976
-3.35762
-3.4151
-3.47198
-3.52805
-3.5831
-3.63695
-3.68941
-3.71571
5.24373
5.23755
5.21875
4.80955
2.28174
1.82236
0.698766
0.611457
0.557538
-2.00232
-2.16928
-1.52129
-1.57072
-2.26396
-2.33144
-2.40347
-2.47493
-2.54568
-2.61586
-2.68564
-2.75513
-2.82441
-2.89352
-2.96243
-3.03107
-3.09934
-3.1671
-3.2342
-3.30051
-3.36584
-3.43005
-3.49298
-3.55445
-3.6143
-3.64424
5.60401
4.50559
2.17631
1.65817
-0.934732
-1.19694
-1.53444
-1.70938
-1.83086
-1.93258
-1.91878
-1.67723
-1.80007
-2.15823
-2.20937
-2.27708
-2.34712
-2.41736
-2.48786
-2.55884
-2.63044
-2.70267
-2.77541
-2.84853
-2.92184
-2.99512
-3.06816
-3.14073
-3.21262
-3.28358
-3.35344
-3.42204
-3.48926
-3.55497
-3.58786
5.88434
1.13636
-1.40276
-1.54613
-1.69223
-1.7306
-1.77724
-1.80806
-1.82349
-1.82815
-1.81663
-1.78081
-1.8608
-2.00447
-2.08126
-2.15384
-2.22598
-2.29865
-2.37228
-2.44702
-2.52284
-2.59961
-2.67708
-2.75499
-2.83314
-2.91126
-2.98902
-3.06587
-3.1413
-3.21515
-3.28739
-3.35817
-3.42767
-3.49641
-3.5311
6.08463
1.98126
-1.62857
-1.7613
-1.7809
-1.78157
-1.78035
-1.77976
-1.77868
-1.77843
-1.78105
-1.79432
-1.84598
-1.92406
-1.99774
-2.06954
-2.14155
-2.21461
-2.28893
-2.36445
-2.44094
-2.51814
-2.59585
-2.67371
-2.75121
-2.82798
-2.90384
-2.97887
-3.05317
-3.12666
-3.19917
-3.27056
-3.34078
-3.40982
-3.4445
6.20483
5.7598
2.34146
2.04977
-1.46758
-1.73852
-1.74746
-1.74797
-1.74427
-1.74498
-1.75385
-1.77673
-1.82074
-1.88125
-1.94743
-2.01563
-2.08517
-2.15609
-2.22852
-2.30248
-2.37781
-2.45429
-2.53157
-2.60931
-2.68731
-2.76529
-2.84294
-2.91993
-2.99604
-3.07109
-3.14496
-3.21755
-3.2888
-3.3587
-3.39378
6.24493
6.25773
6.24848
6.10881
2.63315
2.3897
0.111263
-1.68548
-1.71694
-1.71685
-1.72591
-1.74999
-1.79346
-1.85258
-1.91923
-1.98911
-2.06068
-2.13359
-2.20779
-2.28326
-2.35982
-2.43724
-2.51523
-2.5935
-2.67175
-2.74973
-2.82715
-2.90379
-2.97945
-3.05398
-3.1273
-3.19932
-3.27002
-3.33941
-3.37425
6.20485
6.21812
6.25902
6.32767
6.4063
6.49838
4.286
-0.711834
-1.69903
-1.70114
-1.70409
-1.72302
-1.77035
-1.83958
-1.91406
-1.98938
-2.06482
-2.14055
-2.21682
-2.29376
-2.37131
-2.44932
-2.52757
-2.60581
-2.68377
-2.7612
-2.83789
-2.91363
-2.98827
-3.06171
-3.13387
-3.20472
-3.27425
-3.34252
-3.37683
6.08465
6.09669
6.13584
6.20412
6.30551
6.44079
6.24184
-0.535743
-1.6982
-1.69723
-1.68672
-1.68692
-1.747
-1.84872
-1.93886
-2.02265
-2.10315
-2.18192
-2.25984
-2.3374
-2.41479
-2.49208
-2.56917
-2.64594
-2.72219
-2.79776
-2.87247
-2.94617
-3.01875
-3.09013
-3.16028
-3.22917
-3.29683
-3.36331
-3.39676
5.88436
5.89351
5.92631
5.9869
6.08691
6.23004
3.52114
-1.48987
-1.72082
-1.71426
-1.67905
-1.60122
-1.71319
-1.92372
-2.0215
-2.10942
-2.19193
-2.27089
-2.34757
-2.42287
-2.4973
-2.57113
-2.64447
-2.71731
-2.78956
-2.86112
-2.9319
-3.00177
-3.07066
-3.13852
-3.20533
-3.27109
-3.33583
-3.39961
-3.43176
5.60402
5.60791
5.62647
5.66266
5.73027
5.75032
0.198427
-1.57548
-1.69703
-1.7895
-1.75164
-1.33295
-1.51644
-2.07307
-2.14233
-2.229
-2.3129
-2.39209
-2.46753
-2.54031
-2.61119
-2.68068
-2.74911
-2.81665
-2.8834
-2.94939
-3.01463
-3.07909
-3.14276
-3.20565
-3.26776
-3.32913
-3.3898