# vtk DataFile Version 3.0
vtk output96
ASCII
DATASET STRUCTURED_GRID
DIMENSIONS 51 21 1
POINTS 1071 float
0 0 0
0.2 0 0
0.4 0 0
0.6 0 0
0.8 0 0
1 0 0
1.2 0 0
1.4 0 0
1.6 0 0
1.8 0 0
2 0 0
2.2 0 0
2.4 0 0
2.6 0 0
2.8 0 0
3 0 0
3.2 0 0
3.4 0 0
3.6 0 0
3.8 0 0
4 0 0
4.2 0 0
4.4 0 0
4.6 0 0
4.8 0 0
5 0 0
5.2 0 0
5.4 0 0
5.6 0 0
5.8 0 0
6 0 0
6.2 0 0
6.4 0 0
6.6 0 0
6.8 0 0
7 0 0
7.2 0 0
7.4 0 0
7.6 0 0
7.8 0 0
8 0 0
8.2 0 0
8.4 0 0
8.6 0 0
8.8 0 0
9 0 0
9.2 0 0
9.4 0 0
9.6 0 0
9.8 0 0
10 0 0
0 0.05 0
0.2 0.05 0
0.4 0.05 0
0.6 0.05 0
0.8 0.05 0
1 0.05 0
1.2 0.05 0
1.4 0.05 0
1.6 0.05 0
1.8 0.05 0
2 0.05 0
2.2 0.05 0
2.4 0.05 0
2.6 0.05 0
2.8 0.05 0
3 0.05 0
3.2 0.05 0
3.4 0.05 0
3.6 0.05 0
3.8 0.05 0
4 0.05 0
4.2 0.05 0
4.4 0.05 0
4.6 0.05 0
4.8 0.05 0
5 0.05 0
5.2 0.05 0
5.4 0.05 0
5.6 0.05 0
5.8 0.05 0
6 0.05 0
6.2 0.05 0
6.4 0.05 0
6.6 0.05 0
6.8 0.05 0
7 0.05 0
7.2 0.05 0
7.4 0.05 0
7.6 0.05 0
7.8 0.05 0
8 0.05 0
8.2 0.05 0
8.4 0.05 0
8.6 0.05 0
8.8 0.05 0
9 0.05 0
9.2 0.05 0
9.4 0.05 0
9.6 0.05 0
9.8 0.05 0
10 0.05 0
0 0.1 0
0.2 0.1 0
0.4 0.1 0
0.6 0.1 0
0.8 0.1 0
1 0.1 0
1.2 0.1 0
1.4 0.1 0
1.6 0.1 0
1.8 0.1 0
2 0.1 0
2.2 0.1 0
2.4 0.1 0
2.6 0.1 0
2.8 0.1 0
3 0.1 0
3.2 0.1 0
3.4 0.1 0
3.6 0.1 0
3.8 0.1 0
4 0.1 0
4.2 0.1 0
4.4 0.1 0
4.6 0.1 0
4.8 0.1 0
5 0.1 0
5.2 0.1 0
5.4 0.1 0
5.6 0.1 0
5.8 0.1 0
6 0.1 0
6.2 0.1 0
6.4 0.1 0
6.6 0.1 0
6.8 0.1 0
7 0.1 0
7.2 0.1 0
7.4 0.1 0
7.6 0.1 0
7.8 0.1 0
8 0.1 0
8.2 0.1 0
8.4 0.1 0
8.6 0.1 0
8.8 0.1 0
9 0.1 0
9.2 0.1 0
9.4 0.1 0
9.6 0.1 0
9.8 0.1 0
10 0.1 0
0 0.15 0
0.2 0.15 0
0.4 0.15 0
0.6 0.15 0
0.8 0.15 0
1 0.15 0
1.2 0.15 0
1.4 0.15 0
1.6 0.15 0
1.8 0.15 0
2 0.15 0
2.2 0.15 0
2.4 0.15 0
2.6 0.15 0
2.8 0.15 0
3 0.15 0
3.2 0.15 0
3.4 0.15 0
3.6 0.15 0
3.8 0.15 0
4 0.15 0
4.2 0.15 0
4.4 0.15 0
4.6 0.15 0
4.8 0.15 0
5 0.15 0
5.2 0.15 0
5.4 0.15 0
5.6 0.15 0
5.8 0.15 0
6 0.15 0
6.2 0.15 0
6.4 0.15 0
6.6 0.15 0
6.8 0.15 0
7 0.15 0
7.2 0.15 0
7.4 0.15 0
7.6 0.15 0
7.8 0.15 0
8 0.15 0
8.2 0.15 0
8.4 0.15 0
8.6 0.15 0
8.8 0.15 0
9 0.15 0
9.2 0.15 0
9.4 0.15 0
9.6 0.15 0
9.8 0.15 0
10 0.15 0
0 0.2 0
0.2 0.2 0
0.4 0.2 0
0.6 0.2 0
0.8 0.2 0
1 0.2 0
1.2 0.2 0
1.4 0.2 0
1.6 0.2 0
1.8 0.2 0
2 0.2 0
2.2 0.2 0
2.4 0.2 0
2.6 0.2 0
2.8 0.2 0
3 0.2 0
3.2 0.2 0
3.4 0.2 0
3.6 0.2 0
3.8 0.2 0
4 0.2 0
4.2 0.2 0
4.4 0.2 0
4.6 0.2 0
4.8 0.2 0
5 0.2 0
5.2 0.2 0
5.4 0.2 0
5.6 0.2 0
5.8 0.2 0
6 0.2 0
6.2 0.2 0
6.4 0.2 0
6.6 0.2 0
6.8 0.2 0
7 0.2 0
7.2 0.2 0
7.4 0.2 0
7.6 0.2 0
7.8 0.2 0
8 0.2 0
8.2 0.2 0
8.4 0.2 0
8.6 0.2 0
8.8 0.2 0
9 0.2 0
9.2 0.2 0
9.4 0.2 0
9.6 0.2 0
9.8 0.2 0
10 0.2 0
0 0.25 0
0.2 0.25 0
0.4 0.25 0
0.6 0.25 0
0.8 0.25 0
1 0.25 0
1.2 0.25 0
1.4 0.25 0
1.6 0.25 0
1.8 0.25 0
2 0.25 0
2.2 0.25 0
2.4 0.25 0
2.6 0.25 0
2.8 0.25 0
3 0.25 0
3.2 0.25 0
3.4 0.25 0
3.6 0.25 0
3.8 0.25 0
4 0.25 0
4.2 0.25 0
4.4 0.25 0
4.6 0.25 0
4.8 0.25 0
5 0.25 0
5.2 0.25 0
5.4 0.25 0
5.6 0.25 0
5.8 0.25 0
6 0.25 0
6.2 0.25 0
6.4 0.25 0
6.6 0.25 0
6.8 0.25 0
7 0.25 0
7.2 0.25 0
7.4 0.25 0
7.6 0.25 0
7.8 0.25 0
8 0.25 0
8.2 0.25 0
8.4 0.25 0
8.6 0.25 0
8.8 0.25 0
9 0.25 0
9.2 0.25 0
9.4 0.25 0
9.6 0.25 0
9.8 0.25 0
10 0.25 0
0 0.3 0
0.2 0.3 0
0.4 0.3 0
0.6 0.3 0
0.8 0.3 0
1 0.3 0
1.2 0.3 0
1.4 0.3 0
1.6 0.3 0
1.8 0.3 0
2 0.3 0
2.2 0.3 0
2.4 0.3 0
2.6 0.3 0
2.8 0.3 0
3 0.3 0
3.2 0.3 0
3.4 0.3 0
3.6 0.3 0
3.8 0.3 0
4 0.3 0
4.2 0.3 0
4.4 0.3 0
4.6 0.3 0
4.8 0.3 0
5 0.3 0
5.2 0.3 0
5.4 0.3 0
5.6 0.3 0
5.8 0.3 0
6 0.3 0
6.2 0.3 0
6.4 0.3 0
6.6 0.3 0
6.8 0.3 0
7 0.3 0
7.2 0.3 0
7.4 0.3 0
7.6 0.3 0
7.8 0.3 0
8 0.3 0
8.2 0.3 0
8.4 0.3 0
8.6 0.3 0
8.8 0.3 0
9 0.3 0
9.2 0.3 0
9.4 0.3 0
9.6 0.3 0
9.8 0.3 0
10 0.3 0
0 0.35 0
0.2 0.35 0
0.4 0.35 0
0.6 0.35 0
0.8 0.35 0
1 0.35 0
1.2 0.35 0
1.4 0.35 0
1.6 0.35 0
1.8 0.35 0
2 0.35 0
2.2 0.35 0
2.4 0.35 0
2.6 0.35 0
2.8 0.35 0
3 0.35 0
3.2 0.35 0
3.4 0.35 0
3.6 0.35 0
3.8 0.35 0
4 0.35 0
4.2 0.35 0
4.4 0.35 0
4.6 0.35 0
4.8 0.35 0
5 0.35 0
5.2 0.35 0
5.4 0.35 0
5.6 0.35 0
5.8 0.35 0
6 0.35 0
6.2 0.35 0
6.4 0.35 0
6.6 0.35 0
6.8 0.35 0
7 0.35 0
7.2 0.35 0
7.4 0.35 0
7.6 0.35 0
7.8 0.35 0
8 0.35 0
8.2 0.35 0
8.4 0.35 0
8.6 0.35 0
8.8 0.35 0
9 0.35 0
9.2 0.35 0
9.4 0.35 0
9.6 0.35 0
9.8 0.35 0
10 0.35 0
0 0.4 0
0.2 0.4 0
0.4 0.4 0
0.6 0.4 0
0.8 0.4 0
1 0.4 0
1.2 0.4 0
1.4 0.4 0
1.6 0.4 0
1.8 0.4 0
2 0.4 0
2.2 0.4 0
2.4 0.4 0
2.6 0.4 0
2.8 0.4 0
3 0.4 0
3.2 0.4 0
3.4 0.4 0
3.6 0.4 0
3.8 0.4 0
4 0.4 0
4.2 0.4 0
4.4 0.4 0
4.6 0.4 0
4.8 0.4 0
5 0.4 0
5.2 0.4 0
5.4 0.4 0
5.6 0.4 0
5.8 0.4 0
6 0.4 0
6.2 0.4 0
6.4 0.4 0
6.6 0.4 0
6.8 0.4 0
7 0.4 0
7.2 0.4 0
7.4 0.4 0
7.6 0.4 0
7.8 0.4 0
8 0.4 0
8.2 0.4 0
8.4 0.4 0
8.6 0.4 0
8.8 0.4 0
9 0.4 0
9.2 0.4 0
9.4 0.4 0
9.6 0.4 0
9.8 0.4 0
10 0.4 0
0 0.45 0
0.2 0.45 0
0.4 0.45 0
0.6 0.45 0
0.8 0.45 0
1 0.45 0
1.2 0.45 0
1.4 0.45 0
1.6 0.45 0
1.8 0.45 0
2 0.45 0
2.2 0.45 0
2.4 0.45 0
2.6 0.45 0
2.8 0.45 0
3 0.45 0
3.2 0.45 0
3.4 0.45 0
3.6 0.45 0
3.8 0.45 0
4 0.45 0
4.2 0.45 0
4.4 0.45 0
4.6 0.45 0
4.8 0.45 0
5 0.45 0
5.2 0.45 0
5.4 0.45 0
5.6 0.45 0
5.8 0.45 0
6 0.45 0
6.2 0.45 0
6.4 0.45 0
6.6 0.45 0
6.8 0.45 0
7 0.45 0
7.2 0.45 0
7.4 0.45 0
7.6 0.45 0
7.8 0.45 0
8 0.45 0
8.2 0.45 0
8.4 0.45 0
8.6 0.45 0
8.8 0.45 0
9 0.45 0
9.2 0.45 0
9.4 0.45 0
9.6 0.45 0
9.8 0.45 0
10 0.45 0
0 0.5 0
0.2 0.5 0
0.4 0.5 0
0.6 0.5 0
0.8 0.5 0
1 0.5 0
1.2 0.5 0
1.4 0.5 0
1.6 0.5 0
1.8 0.5 0
2 0.5 0
2.2 0.5 0
2.4 0.5 0
2.6 0.5 0
2.8 0.5 0
3 0.5 0
3.2 0.5 0
3.4 0.5 0
3.6 0.5 0
3.8 0.5 0
4 0.5 0
4.2 0.5 0
4.4 0.5 0
4.6 0.5 0
4.8 0.5 0
5 0.5 0
5.2 0.5 0
5.4 0.5 0
5.6 0.5 0
5.8 0.5 0
6 0.5 0
6.2 0.5 0
6.4 0.5 0
6.6 0.5 0
6.8 0.5 0
7 0.5 0
7.2 0.5 0
7.4 0.5 0
7.6 0.5 0
7.8 0.5 0
8 0.5 0
8.2 0.5 0
8.4 0.5 0
8.6 0.5 0
8.8 0.5 0
9 0.5 0
9.2 0.5 0
9.4 0.5 0
9.6 0.5 0
9.8 0.5 0
10 0.5 0
0 0.55 0
0.2 0.55 0
0.4 0.55 0
0.6 0.55 0
0.8 0.55 0
1 0.55 0
1.2 0.55 0
1.4 0.55 0
1.6 0.55 0
1.8 0.55 0
2 0.55 0
2.2 0.55 0
2.4 0.55 0
2.6 0.55 0
2.8 0.55 0
3 0.55 0
3.2 0.55 0
3.4 0.55 0
3.6 0.55 0
3.8 0.55 0
4 0.55 0
4.2 0.55 0
4.4 0.55 0
4.6 0.55 0
4.8 0.55 0
5 0.55 0
5.2 0.55 0
5.4 0.55 0
5.6 0.55 0
5.8 0.55 0
6 0.55 0
6.2 0.55 0
6.4 0.55 0
6.6 0.55 0
6.8 0.55 0
7 0.55 0
7.2 0.55 0
7.4 0.55 0
7.6 0.55 0
7.8 0.55 0
8 0.55 0
8.2 0.55 0
8.4 0.55 0
8.6 0.55 0
8.8 0.55 0
9 0.55 0
9.2 0.55 0
9.4 0.55 0
9.6 0.55 0
9.8 0.55 0
10 0.55 0
0 0.6 0
0.2 0.6 0
0.4 0.6 0
0.6 0.6 0
0.8 0.6 0
1 0.6 0
1.2 0.6 0
1.4 0.6 0
1.6 0.6 0
1.8 0.6 0
2 0.6 0
2.2 0.6 0
2.4 0.6 0
2.6 0.6 0
2.8 0.6 0
3 0.6 0
3.2 0.6 0
3.4 0.6 0
3.6 0.6 0
3.8 0.6 0
4 0.6 0
4.2 0.6 0
4.4 0.6 0
4.6 0.6 0
4.8 0.6 0
5 0.6 0
5.2 0.6 0
5.4 0.6 0
5.6 0.6 0
5.8 0.6 0
6 0.6 0
6.2 0.6 0
6.4 0.6 0
6.6 0.6 0
6.8 0.6 0
7 0.6 0
7.2 0.6 0
7.4 0.6 0
7.6 0.6 0
7.8 0.6 0
8 0.6 0
8.2 0.6 0
8.4 0.6 0
8.6 0.6 0
8.8 0.6 0
9 0.6 0
9.2 0.6 0
9.4 0.6 0
9.6 0.6 0
9.8 0.6 0
10 0.6 0
0 0.65 0
0.2 0.65 0
0.4 0.65 0
0.6 0.65 0
0.8 0.65 0
1 0.65 0
1.2 0.65 0
1.4 0.65 0
1.6 0.65 0
1.8 0.65 0
2 0.65 0
2.2 0.65 0
2.4 0.65 0
2.6 0.65 0
2.8 0.65 0
3 0.65 0
3.2 0.65 0
3.4 0.65 0
3.6 0.65 0
3.8 0.65 0
4 0.65 0
4.2 0.65 0
4.4 0.65 0
4.6 0.65 0
4.8 0.65 0
5 0.65 0
5.2 0.65 0
5.4 0.65 0
5.6 0.65 0
5.8 0.65 0
6 0.65 0
6.2 0.65 0
6.4 0.65 0
6.6 0.65 0
6.8 0.65 0
7 0.65 0
7.2 0.65 0
7.4 0.65 0
7.6 0.65 0
7.8 0.65 0
8 0.65 0
8.2 0.65 0
8.4 0.65 0
8.6 0.65 0
8.8 0.65 0
9 0.65 0
9.2 0.65 0
9.4 0.65 0
9.6 0.65 0
9.8 0.65 0
10 0.65 0
0 0.7 0
0.2 0.7 0
0.4 0.7 0
0.6 0.7 0
0.8 0.7 0
1 0.7 0
1.2 0.7 0
1.4 0.7 0
1.6 0.7 0
1.8 0.7 0
2 0.7 0
2.2 0.7 0
2.4 0.7 0
2.6 0.7 0
2.8 0.7 0
3 0.7 0
3.2 0.7 0
3.4 0.7 0
3.6 0.7 0
3.8 0.7 0
4 0.7 0
4.2 0.7 0
4.4 0.7 0
4.6 0.7 0
4.8 0.7 0
5 0.7 0
5.2 0.7 0
5.4 0.7 0
5.6 0.7 0
5.8 0.7 0
6 0.7 0
6.2 0.7 0
6.4 0.7 0
6.6 0.7 0
6.8 0.7 0
7 0.7 0
7.2 0.7 0
7.4 0.7 0
7.6 0.7 0
7.8 0.7 0
8 0.7 0
8.2 0.7 0
8.4 0.7 0
8.6 0.7 0
8.8 0.7 0
9 0.7 0
9.2 0.7 0
9.4 0.7 0
9.6 0.7 0
9.8 0.7 0
10 0.7 0
0 0.75 0
0.2 0.75 0
0.4 0.75 0
0.6 0.75 0
0.8 0.75 0
1 0.75 0
1.2 0.75 0
1.4 0.75 0
1.6 0.75 0
1.8 0.75 0
2 0.75 0
2.2 0.75 0
2.4 0.75 0
2.6 0.75 0
2.8 0.75 0
3 0.75 0
3.2 0.75 0
3.4 0.75 0
3.6 0.75 0
3.8 0.75 0
4 0.75 0
4.2 0.75 0
4.4 0.75 0
4.6 0.75 0
4.8 0.75 0
5 0.75 0
5.2 0.75 0
5.4 0.75 0
5.6 0.75 0
5.8 0.75 0
6 0.75 0
6.2 0.75 0
6.4 0.75 0
6.6 0.75 0
6.8 0.75 0
7 0.75 0
7.2 0.75 0
7.4 0.75 0
7.6 0.75 0
7.8 0.75 0
8 0.75 0
8.2 0.75 0
8.4 0.75 0
8.6 0.75 0
8.8 0.75 0
9 0.75 0
9.2 0.75 0
9.4 0.75 0
9.6 0.75 0
9.8 0.75 0
10 0.75 0
0 0.8 0
0.2 0.8 0
0.4 0.8 0
0.6 0.8 0
0.8 0.8 0
1 0.8 0
1.2 0.8 0
1.4 0.8 0
1.6 0.8 0
1.8 0.8 0
2 0.8 0
2.2 0.8 0
2.4 0.8 0
2.6 0.8 0
2.8 0.8 0
3 0.8 0
3.2 0.8 0
3.4 0.8 0
3.6 0.8 0
3.8 0.8 0
4 0.8 0
4.2 0.8 0
4.4 0.8 0
4.6 0.8 0
4.8 0.8 0
5 0.8 0
5.2 0.8 0
5.4 0.8 0
5.6 0.8 0
5.8 0.8 0
6 0.8 0
6.2 0.8 0
6.4 0.8 0
6.6 0.8 0
6.8 0.8 0
7 0.8 0
7.2 0.8 0
7.4 0.8 0
7.6 0.8 0
7.8 0.8 0
8 0.8 0
8.2 0.8 0
8.4 0.8 0
8.6 0.8 0
8.8 0.8 0
9 0.8 0
9.2 0.8 0
9.4 0.8 0
9.6 0.8 0
9.8 0.8 0
10 0.8 0
0 0.85 0
0.2 0.85 0
0.4 0.85 0
0.6 0.85 0
0.8 0.85 0
1 0.85 0
1.2 0.85 0
1.4 0.85 0
1.6 0.85 0
1.8 0.85 0
2 0.85 0
2.2 0.85 0
2.4 0.85 0
2.6 0.85 0
2.8 0.85 0
3 0.85 0
3.2 0.85 0
3.4 0.85 0
3.6 0.85 0
3.8 0.85 0
4 0.85 0
4.2 0.85 0
4.4 0.85 0
4.6 0.85 0
4.8 0.85 0
5 0.85 0
5.2 0.85 0
5.4 0.85 0
5.6 0.85 0
5.8 0.85 0
6 0.85 0
6.2 0.85 0
6.4 0.85 0
6.6 0.85 0
6.8 0.85 0
7 0.85 0
7.2 0.85 0
7.4 0.85 0
7.6 0.85 0
7.8 0.85 0
8 0.85 0
8.2 0.85 0
8.4 0.85 0
8.6 0.85 0
8.8 0.85 0
9 0.85 0
9.2 0.85 0
9.4 0.85 0
9.6 0.85 0
9.8 0.85 0
10 0.85 0
0 0.9 0
0.2 0.9 0
0.4 0.9 0
0.6 0.9 0
0.8 0.9 0
1 0.9 0
1.2 0.9 0
1.4 0.9 0
1.6 0.9 0
1.8 0.9 0
2 0.9 0
2.2 0.9 0
2.4 0.9 0
2.6 0.9 0
2.8 0.9 0
3 0.9 0
3.2 0.9 0
3.4 0.9 0
3.6 0.9 0
3.8 0.9 0
4 0.9 0
4.2 0.9 0
4.4 0.9 0
4.6 0.9 0
4.8 0.9 0
5 0.9 0
5.2 0.9 0
5.4 0.9 0
5.6 0.9 0
5.8 0.9 0
6 0.9 0
6.2 0.9 0
6.4 0.9 0
6.6 0.9 0
6.8 0.9 0
7 0.9 0
7.2 0.9 0
7.4 0.9 0
7.6 0.9 0
7.8 0.9 0
8 0.9 0
8.2 0.9 0
8.4 0.9 0
8.6 0.9 0
8.8 0.9 0
9 0.9 0
9.2 0.9 0
9.4 0.9 0
9.6 0.9 0
9.8 0.9 0
10 0.9 0
0 0.95 0
0.2 0.95 0
0.4 0.95 0
0.6 0.95 0
0.8 0.95 0
1 0.95 0
1.2 0.95 0
1.4 0.95 0
1.6 0.95 0
1.8 0.95 0
2 0.95 0
2.2 0.95 0
2.4 0.95 0
2.6 0.95 0
2.8 0.95 0
3 0.95 0
3.2 0.95 0
3.4 0.95 0
3.6 0.95 0
3.8 0.95 0
4 0.95 0
4.2 0.95 0
4.4 0.95 0
4.6 0.95 0
4.8 0.95 0
5 0.95 0
5.2 0.95 0
5.4 0.95 0
5.6 0.95 0
5.8 0.95 0
6 0.95 0
6.2 0.95 0
6.4 0.95 0
6.6 0.95 0
6.8 0.95 0
7 0.95 0
7.2 0.95 0
7.4 0.95 0
7.6 0.95 0
7.8 0.95 0
8 0.95 0
8.2 0.95 0
8.4 0.95 0
8.6 0.95 0
8.8 0.95 0
9 0.95 0
9.2 0.95 0
9.4 0.95 0
9.6 0.95 0
9.8 0.95 0
10 0.95 0
0 1 0
0.2 1 0
0.4 1 0
0.6 1 0
0.8 1 0
1 1 0
1.2 1 0
1.4 1 0
1.6 1 0
1.8 1 0
2 1 0
2.2 1 0
2.4 1 0
2.6 1 0
2.8 1 0
3 1 0
3.2 1 0
3.4 1 0
3.6 1 0
3.8 1 0
4 1 0
4.2 1 0
4.4 1 0
4.6 1 0
4.8 1 0
5 1 0
5.2 1 0
5.4 1 0
5.6 1 0
5.8 1 0
6 1 0
6.2 1 0
6.4 1 0
6.6 1 0
6.8 1 0
7 1 0
7.2 1 0
7.4 1 0
7.6 1 0
7.8 1 0
8 1 0
8.2 1 0
8.4 1 0
8.6 1 0
8.8 1 0
9 1 0
9.2 1 0
9.4 1 0
9.6 1 0
9.8 1 0
10 1 0

CELL_DATA 1000
SCALARS phi float
LOOKUP_TABLE default 
4.711
4.711
4.711
4.711
4.711
4.711
4.711
4.711
4.711
4.711
4.711
4.711
4.711
4.711
4.711
4.711
4.711
4.711
4.711
4.711
4.711
4.711
4.711
4.711
4.711
4.711
4.711
4.711
4.711
4.711
4.711
4.711
4.711
4.711
4.711
4.711
4.711
4.711
4.711
4.711
4.711
4.711
4.711
4.711
4.711
4.711
4.711
4.711
4.711
4.711
4.711
4.711
4.711
4.711
4.711
4.711
4.711
4.711
4.711
4.711
4.711
4.711
4.711
4.711
4.711
4.711
4.711
4.711
4.711
4.711
4.711
4.711
4.711
4.711
4.711
4.711
4.711
4.711
4.711
4.711
4.711
4.711
4.711
4.711
4.711
4.711
4.711
4.711
4.711
4.711
4.711
4.711
4.711
4.711
4.711
4.711
4.711
4.711
4.711
4.711
4.711
4.711
4.711
4.711
4.711
4.711
4.711
4.711
4.711
4.711
4.711
4.711
4.711
4.711
4.711
4.711
4.711
4.711
4.711
4.711
4.711
4.711
4.711
4.711
4.711
4.711
4.711
4.711
4.711
4.711
4.711
4.711
4.711
4.711
4.711
4.711
4.711
4.711
4.711
4.711
4.711
4.711
4.711
4.711
4.711
4.711
4.711
4.711
4.711
4.711
4.711
4.711
4.711
4.711
4.711
4.711
4.711
4.711
4.711
4.711
4.711
4.711
4.711
4.711
4.711
4.711
4.711
4.711
4.711
4.711
4.711
4.711
4.711
4.711
4.711
4.711
4.711
4.711
4.711
4.711
4.711
4.711
4.711
4.711
4.711
4.711
4.711
4.711
4.711
4.711
4.711
4.711
4.711
4.711
4.711
4.711
4.711
4.711
4.711
4.711
4.711
4.711
4.711
4.711
4.711
4.711
4.711
4.711
4.711
4.711
4.711
4.711
4.711
4.711
4.711
4.711
4.711
4.711
4.711
4.711
4.711
4.711
4.711
4.711
4.711
4.711
4.711
4.711
4.711
4.711
4.711
4.711
4.711
4.711
4.711
4.711
4.711
4.711
4.711
4.711
4.711
4.711
4.711
4.711
4.711
4.711
4.711
4.711
4.711
4.711
4.711
4.711
4.711
4.711
4.711
4.711
4.711
4.711
4.711
4.711
4.711
4.711
4.711
4.711
4.711
4.711
4.711
4.711
4.711
4.711
4.711
4.711
4.711
4.711
4.711
4.711
4.711
4.711
4.711
4.711
4.711
4.711
4.711
4.711
4.711
4.711
4.711
4.711
4.711
4.711
4.711
4.711
4.711
4.711
4.711
4.711
4.711
4.711
4.711
4.711
4.711
4.711
4.711
4.711
4.711
4.711
4.711
4.711
4.711
4.711
4.711
4.711
4.711
4.711
4.711
4.711
4.711
4.711
4.711
4.711
4.711
4.711
4.711
4.711
4.711
4.711
4.711
4.711
4.711
4.711
4.711
4.711
4.711
4.711
4.711
4.711
4.711
4.711
4.711
4.711
4.711
4.711
4.711
4.711
4.711
4.711
4.711
4.711
4.711
4.711
4.711
4.711
4.711
4.711
4.711
4.711
4.711
4.711
4.711
4.711
4.711
4.711
4.711
4.711
4.711
4.711
4.711
4.711
4.711
4.711
4.711
4.711
4.711
4.711
4.711
4.711
4.711
4.711
4.711
4.711
4.711
4.711
4.711
4.711
4.711
4.711
4.711
4.711
4.711
4.711
4.711
4.711
4.711
4.711
4.711
4.711
4.711
4.711
4.711
4.711
4.711
4.711
4.711
4.711
4.711
4.711
4.711
4.711
4.711
4.711
4.711
4.711
4.711
4.711
4.711
4.711
4.711
4.711
4.711
4.711
4.711
4.711
4.711
4.711
4.711
4.711
4.711
4.711
4.711
4.711
4.711
4.711
4.711
4.711
4.711
4.711
4.711
4.711
4.711
4.711
4.711
4.711
4.711
4.711
4.711
4.711
4.711
4.711
4.711
4.711
4.711
4.711
4.711
4.711
4.711
4.711
4.711
4.711
4.711
4.711
4.711
4.711
4.711
4.711
4.711
4.711
4.711
4.711
4.711
4.711
4.711
4.711
4.711
4.711
4.711
4.711
4.711
4.711
4.711
4.711
4.711
4.711
4.711
4.711
4.711
4.711
4.711
4.711
4.711
4.711
4.711
4.711
4.711
4.711
4.711
4.711
4.711
4.711
4.711
4.711
4.711
4.711
4.711
4.711
4.711
4.711
4.711
4.711
4.711
4.711
4.711
4.711
4.711
4.711
4.711
4.711
4.711
4.711
4.711
4.711
4.711
4.711
4.711
4.711
4.711
4.711
4.711
4.711
4.711
4.711
4.711
4.711
4.711
4.711
4.711
4.711
4.711
4.711
4.711
4.711
4.711
4.711
4.711
4.711
4.711
4.711
4.711
4.711
4.711
4.711
4.711
4.711
4.711
4.711
4.711
4.711
4.711
4.711
4.711
4.711
4.711
4.711
4.711
4.711
4.711
4.711
4.711
4.711
4.711
4.711
4.711
4.711
4.711
4.711
4.711
4.711
4.711
4.711
4.711
4.711
4.711
4.711
4.711
4.711
4.711
4.711
4.711
4.711
4.711
4.711
4.711
4.711
4.711
4.711
4.711
4.711
4.711
4.711
4.711
4.711
4.711
4.711
4.711
4.711
4.711
4.711
4.711
4.711
4.711
4.711
4.711
4.711
4.711
4.711
4.711
4.711
4.711
4.711
4.711
4.711
4.711
4.711
4.711
4.711
4.711
4.711
4.711
4.711
4.711
4.711
4.711
4.711
4.711
4.711
4.711
4.711
4.711
4.711
4.711
4.711
4.711
4.711
4.711
4.711
4.711
4.711
4.711
4.711
4.711
4.711
4.711
4.711
4.711
4.711
4.711
4.711
4.711
4.711
4.711
4.711
4.711
4.711
4.711
4.711
4.711
4.711
4.711
4.711
4.711
4.711
4.711
4.711
4.711
4.711
4.711
4.711
4.711
4.711
4.711
4.711
4.711
4.711
4.711
4.711
4.711
4.711
4.711
4.711
4.711
4.711
4.711
4.711
4.711
4.711
4.711
4.711
4.711
4.711
4.711
4.711
4.711
4.711
4.711
4.711
4.711
4.711
4.711
4.711
4.711
4.711
4.711
4.711
4.711
4.711
4.711
4.711
4.711
4.711
4.711
4.711
4.711
4.711
4.711
4.711
4.711
4.711
4.711
4.711
4.711
4.711
4.711
4.711
4.711
4.711
4.711
4.711
4.711
4.711
4.711
4.711
4.711
4.711
4.711
4.711
4.711
4.711
4.711
4.711
4.711
4.711
4.711
4.711
4.711
4.711
4.711
4.711
4.711
4.711
4.711
4.711
4.711
4.711
4.711
4.711
4.711
4.711
4.711
4.711
4.711
4.711
4.711
4.711
4.711
4.711
4.711
4.711
4.711
4.711
4.711
4.711
4.711
4.711
4.711
4.711
4.711
4.711
4.711
4.711
4.711
4.711
4.711
4.711
4.711
4.711
4.711
4.711
4.711
4.711
4.711
4.711
4.711
4.711
4.711
4.711
4.711
4.711
4.711
4.711
4.711
4.711
4.711
4.711
4.711
4.711
4.711
4.711
4.711
4.711
4.711
4.711
4.711
4.711
4.711
4.711
4.711
4.711
4.711
4.711
4.711
4.711
4.711
4.711
4.711
4.711
4.711
4.711
4.711
4.711
4.711
4.711
4.711
4.711
4.711
4.711
4.711
4.711
4.711
4.711
4.711
4.711
4.711
4.711
4.711
4.711
4.711
4.711
4.711
4.711
4.711
4.711
4.711
4.711
4.711
4.711
4.711
4.711
4.711
4.711
4.711
4.711
4.711
4.711
4.711
4.711
4.711
4.711
4.711
4.711
4.711
4.711
4.711
4.711
4.711
4.711
4.711
4.711
4.711
4.711
4.711
4.711
4.711
4.711
4.711
4.711
4.711
4.711
4.711
4.711
4.711
4.711
4.711
4.711
4.711
4.711
4.711
4.711
4.711
4.711
4.711
4.711
4.711
4.711
4.711
4.711
4.711
4.711
4.711
4.711
4.711
4.711
4.711
4.711
4.711
4.711
4.711
4.711
4.711
4.711
4.711
4.711
4.711
4.711
4.711
4.711
4.711
4.711
4.711
4.711
4.711
4.711
4.711
4.711
4.711
4.711
4.711
4.711
4.711
4.711
4.711
4.711
4.711
4.711
4.711
4.711
4.711
4.711
4.711
4.711
4.711
4.711
4.711
4.711
4.711
4.711
4.711
4.711
4.711
4.711
4.711
4.711
4.711
4.711
4.711
4.711
4.711
4.711
4.711
4.711
4.711
4.711
4.711
4.711
4.711
4.711
4.711
4.711
4.711
4.711
4.711
4.711
4.711
4.711
4.711
4.711
4.711
4.711
4.711
4.711
4.711
4.711

SCALARS p float
LOOKUP_TABLE default 
1309.65
1309.65
1289.07
1269.46
1252.17
1239.22
1234.24
1234.24
0
0
0
0
740.868
740.868
740.869
735.564
723.6
706.988
687.59
666.67
644.99
622.978
600.859
578.739
556.662
534.639
512.663
490.722
468.801
446.89
424.983
403.077
381.175
359.28
337.397
315.527
293.671
271.828
249.996
228.172
206.352
184.535
162.72
140.904
119.087
97.2703
75.4531
53.6355
31.8178
10
1309.65
1309.65
1289.07
1269.46
1252.17
1239.22
1234.24
1234.24
0
0
0
0
740.868
740.869
740.869
735.564
723.6
706.988
687.59
666.67
644.99
622.978
600.859
578.739
556.662
534.639
512.663
490.722
468.801
446.89
424.983
403.077
381.175
359.28
337.397
315.527
293.671
271.828
249.996
228.172
206.352
184.535
162.72
140.904
119.087
97.2703
75.4531
53.6355
31.8178
10
1309.82
1309.82
1289.14
1269.63
1252.51
1239.87
1235.69
1235.69
0
0
0
0
739.749
739.75
739.75
734.539
722.696
706.248
687.012
666.23
644.661
622.732
600.672
578.595
556.548
534.546
512.585
490.656
468.746
446.846
424.949
403.053
381.16
359.272
337.393
315.526
293.672
271.829
249.997
228.173
206.353
184.536
162.72
140.904
119.087
97.2703
75.4531
53.6355
31.8178
10
1309.9
1309.9
1289.08
1269.58
1252.44
1239.76
1235.89
1235.89
0
0
0
0
739.001
739.001
739.001
733.814
721.946
705.566
686.441
665.774
644.306
622.46
600.464
578.433
556.42
534.442
512.499
490.584
468.687
446.798
424.912
403.026
381.141
359.26
337.387
315.523
293.671
271.83
249.998
228.174
206.354
184.536
162.72
140.904
119.087
97.2703
75.453
53.6355
31.8178
10
1309.78
1309.78
1288.88
1269.28
1251.92
1238.74
1234.22
1234.22
0
0
0
0
738.687
738.687
738.687
733.314
721.272
704.881
685.831
665.269
643.904
622.147
600.222
578.246
556.273
534.324
512.402
490.504
468.621
446.744
424.869
402.994
381.118
359.245
337.377
315.518
293.669
271.83
249.999
228.174
206.354
184.537
162.72
140.904
119.087
97.2703
75.453
53.6355
31.8178
10
1309.49
1309.49
1288.53
1268.74
1250.92
1236.72
1230
1230
0
0
0
0
738.942
738.942
738.942
732.961
720.601
704.137
685.143
664.685
643.433
621.778
599.937
578.026
556.101
534.188
512.292
490.413
468.545
446.682
424.819
402.955
381.089
359.224
337.364
315.511
293.665
271.828
249.999
228.175
206.355
184.537
162.721
140.904
119.087
97.2704
75.453
53.6355
31.8178
10
1309.05
1309.05
1288.03
1267.96
1249.46
1233.72
1222.58
1222.58
1000.55
929.994
876.361
820.81
739.886
739.886
739.886
732.685
719.876
703.296
684.349
664.005
642.882
621.345
599.603
577.769
555.903
534.032
512.167
490.311
468.461
446.612
424.761
402.908
381.053
359.199
337.347
315.5
293.66
271.826
249.998
228.175
206.356
184.538
162.721
140.904
119.088
97.2704
75.4531
53.6355
31.8178
10
1308.5
1308.5
1287.42
1266.97
1247.61
1229.94
1213.64
1186.77
1000.55
929.994
876.361
820.81
749.129
744.379
741.004
732.425
719.068
702.34
683.44
663.224
642.247
620.846
599.219
577.475
555.677
533.856
512.028
490.197
468.366
446.532
424.695
402.854
381.011
359.167
337.325
315.486
293.652
271.823
249.998
228.176
206.357
184.539
162.722
140.905
119.088
97.2706
75.4531
53.6355
31.8178
10
1307.9
1307.9
1286.71
1265.82
1245.48
1225.68
1204.32
1165.07
1013.07
937.222
880.298
824.025
761.05
749.15
742.313
732.168
718.176
701.276
682.427
662.353
641.54
620.292
598.793
577.15
555.429
533.664
511.876
490.074
468.263
446.446
424.622
402.795
380.964
359.132
337.3
315.47
293.643
271.819
249.996
228.176
206.358
184.54
162.723
140.905
119.088
97.2707
75.4531
53.6355
31.8178
10
1307.29
1307.29
1285.96
1264.58
1243.19
1221.22
1195.41
1149.28
1022.97
945.114
885.407
828.834
771.968
754.166
743.775
731.918
717.22
700.128
681.334
661.416
640.781
619.699
598.338
576.805
555.166
533.461
511.716
489.944
468.155
446.354
424.545
402.731
380.913
359.093
337.273
315.452
293.633
271.814
249.995
228.177
206.359
184.541
162.724
140.906
119.088
97.2708
75.4532
53.6355
31.8177
10
1306.7
1306.7
1285.19
1263.31
1240.87
1216.87
1187.38
1137.71
1030.48
952.909
891.209
834.535
781.749
759.169
745.317
731.68
716.23
698.934
680.199
660.446
639.999
619.089
597.872
576.452
554.898
533.255
511.553
489.813
468.046
446.262
424.467
402.666
380.861
359.054
337.245
315.434
293.622
271.809
249.993
228.177
206.36
184.542
162.725
140.907
119.089
97.271
75.4532
53.6355
31.8177
10
1306.17
1306.17
1284.45
1262.08
1238.66
1212.84
1180.48
1129.25
1036.12
960.096
897.164
840.481
790.268
763.883
746.834
731.441
715.234
697.735
679.065
659.481
639.225
618.489
597.415
576.107
554.636
533.054
511.395
489.684
467.939
446.172
424.391
402.603
380.811
359.015
337.218
315.417
293.612
271.804
249.992
228.177
206.361
184.544
162.726
140.907
119.089
97.2712
75.4533
53.6355
31.8177
10
1305.71
1305.71
1283.78
1260.97
1236.68
1209.31
1174.81
1123.17
1040.37
966.407
902.826
846.153
797.449
768.067
748.202
731.176
714.253
696.569
677.973
658.56
638.491
617.923
596.986
575.783
554.391
532.865
511.246
489.563
467.838
446.087
424.32
402.544
380.764
358.981
337.193
315.401
293.603
271.8
249.991
228.178
206.362
184.545
162.726
140.908
119.089
97.2713
75.4533
53.6354
31.8177
10
1305.34
1305.34
1283.2
1260.02
1235
1206.41
1170.38
1118.94
1043.62
971.739
907.876
851.185
803.27
771.547
749.312
730.854
713.303
695.471
676.958
657.713
637.822
617.41
596.598
575.491
554.169
532.693
511.11
489.452
467.746
446.009
424.255
402.492
380.723
358.95
337.172
315.388
293.596
271.796
249.99
228.178
206.363
184.546
162.727
140.908
119.09
97.2714
75.4533
53.6354
31.8177
10
1305.04
1305.04
1282.76
1259.28
1233.69
1204.19
1167.14
1116.16
1046.14
976.082
912.119
855.344
807.748
774.218
750.08
730.449
712.395
694.466
676.048
656.964
637.235
616.963
596.261
575.237
553.975
532.542
510.988
489.353
467.663
445.94
424.199
402.447
380.689
358.926
337.156
315.378
293.591
271.794
249.99
228.179
206.364
184.546
162.728
140.909
119.09
97.2715
75.4533
53.6354
31.8177
10
1304.81
1304.81
1282.44
1258.77
1232.8
1202.69
1165.04
1114.56
1048.15
979.477
915.454
858.506
810.933
776.037
750.459
729.947
711.536
693.568
675.257
656.323
636.738
616.585
595.977
575.021
553.808
532.41
510.882
489.265
467.59
445.88
424.151
402.41
380.661
358.906
337.143
315.371
293.587
271.793
249.99
228.18
206.365
184.547
162.728
140.909
119.09
97.2715
75.4533
53.6354
31.8177
10
1304.6
1304.6
1282.27
1258.5
1232.32
1201.9
1163.96
1113.95
1049.79
982.004
917.854
860.648
812.907
777.016
750.436
729.337
710.725
692.779
674.585
655.788
636.327
616.274
595.741
574.84
553.667
532.297
510.789
489.187
467.526
445.828
424.109
402.378
380.639
358.892
337.135
315.366
293.585
271.793
249.991
228.181
206.365
184.548
162.728
140.909
119.09
97.2715
75.4533
53.6354
31.8176
10
1304.39
1304.39
1282.23
1258.45
1232.24
1201.77
1163.84
1114.2
1051.22
983.781
919.368
861.822
813.778
777.201
750.015
728.615
709.951
692.087
674.02
655.348
635.993
616.022
595.549
574.691
553.548
532.199
510.707
489.119
467.469
445.781
424.073
402.352
380.621
358.881
337.129
315.364
293.585
271.794
249.991
228.181
206.366
184.548
162.729
140.909
119.09
97.2715
75.4533
53.6354
31.8176
10
1304.26
1304.26
1282.32
1258.61
1232.53
1202.26
1164.6
1115.28
1052.58
984.965
920.109
862.122
813.67
776.658
749.212
727.767
709.194
691.471
673.543
654.989
635.724
615.819
595.394
574.568
553.448
532.115
510.635
489.057
467.417
445.739
424.041
402.329
380.607
358.873
337.126
315.363
293.586
271.795
249.993
228.182
206.367
184.548
162.729
140.909
119.09
97.2715
75.4533
53.6354
31.8176
10
1304.26
1304.26
1282.32
1258.61
1232.53
1202.26
1164.6
1115.28
1052.58
984.965
920.109
862.122
813.67
776.658
749.212
727.767
709.194
691.471
673.543
654.989
635.724
615.819
595.394
574.568
553.448
532.115
510.635
489.057
467.417
445.739
424.041
402.329
380.607
358.873
337.126
315.363
293.586
271.795
249.993
228.182
206.367
184.548
162.729
140.909
119.09
97.2715
75.4533
53.6354
31.8176
10

SCALARS  u float
LOOKUP_TABLE default 
0.898438
0.55415
0.57368
0.570206
0.552612
0.529407
0.637171
2.28516
0
0
0
0
-1.44099
-0.0703254
0.174654
0.283892
0.36553
0.427102
0.472896
0.506666
0.531473
0.549691
0.563132
0.573191
0.580935
0.587179
0.592498
0.59727
0.601682
0.605798
0.609579
0.612963
0.615877
0.618289
0.620197
0.621647
0.6227
0.623435
0.623929
0.62425
0.624454
0.624581
0.624659
0.624706
0.624735
0.624752
0.624761
0.624766
0.624769
0.624769
3.18751
2.82565
2.85758
2.82309
2.72738
2.56993
2.66453
6.02847
0
0
0
0
-3.37686
0.281325
1.10553
1.5544
1.90738
2.17803
2.38068
2.53051
2.64066
2.72159
2.78139
2.8262
2.86071
2.88837
2.9116
2.93196
2.95027
2.96678
2.98147
2.99416
3.00471
3.01312
3.01952
3.02418
3.02743
3.0296
3.03101
3.0319
3.03246
3.03281
3.03303
3.03318
3.03327
3.03333
3.03336
3.03338
3.03339
3.0334
5.23342
4.88794
4.90103
4.84691
4.70764
4.46972
4.50041
8.0206
0
0
0
0
-4.07258
0.811761
2.04087
2.74532
3.2998
3.7308
4.05964
4.30748
4.49297
4.63141
4.735
4.8133
4.87376
4.92206
4.96231
4.99721
5.02831
5.05623
5.08102
5.1025
5.12047
5.13491
5.14602
5.15422
5.16001
5.16395
5.16654
5.1682
5.16925
5.16991
5.17033
5.1706
5.17077
5.17087
5.17094
5.17097
5.17099
5.17099
7.0233
6.71018
6.70303
6.63813
6.48207
6.2072
6.14757
9.17237
0
0
0
0
-3.96307
1.58467
3.03092
3.90572
4.59204
5.13102
5.54935
5.87063
6.11547
6.30118
6.44193
6.54924
6.63232
6.69844
6.75307
6.79999
6.84149
6.87868
6.91184
6.94081
6.96537
6.98542
7.00117
7.01302
7.0216
7.02759
7.03162
7.03426
7.03596
7.03703
7.03771
7.03814
7.0384
7.03856
7.03866
7.03871
7.03874
7.03875
8.55356
8.27573
8.25755
8.19072
8.03804
7.7631
7.62302
9.83473
0
0
0
0
-3.1016
2.64934
4.1395
5.0928
5.83835
6.42891
6.89435
7.25804
7.53996
7.75707
7.92367
8.05167
8.15098
8.2297
8.29416
8.34897
8.39714
8.44028
8.47898
8.51322
8.54272
8.56732
8.58707
8.60233
8.61367
8.6218
8.62742
8.6312
8.63367
8.63526
8.63626
8.63689
8.63727
8.6375
8.63764
8.63771
8.63775
8.63776
9.82492
9.57844
9.55868
9.49829
9.36413
9.12132
8.94394
9.94987
0
0
0
0
-1.15558
4.04973
5.43178
6.35873
7.08536
7.66745
8.13348
8.50384
8.79564
9.02363
9.20056
9.33745
9.44377
9.5276
9.59555
9.65271
9.70262
9.74737
9.78788
9.82428
9.85632
9.88367
9.90623
9.92414
9.93784
9.94795
9.95515
9.9601
9.96342
9.96559
9.96696
9.96782
9.96834
9.96865
9.96883
9.96893
9.96898
9.96898
10.8393
10.6178
10.6029
10.5557
10.451
10.2671
10.1494
11.5038
5.31894
4.13491
3.66956
3.58954
3.10208
5.87234
6.95443
7.73406
8.35955
8.87191
9.2908
9.63019
9.90224
10.1179
10.2871
10.4187
10.5208
10.6007
10.6646
10.7176
10.7636
10.805
10.8431
10.878
10.9096
10.9374
10.961
10.9804
10.9958
11.0074
11.0159
11.022
11.0261
11.0288
11.0306
11.0317
11.0324
11.0328
11.033
11.0331
11.0332
11.0332
11.5987
11.3958
11.3892
11.3595
11.2914
11.1827
11.198
12.4498
10.4323
8.82827
8.01119
7.73519
7.19226
8.07154
8.68656
9.20427
9.65355
10.0403
10.3679
10.6408
10.8644
11.0447
11.1877
11.2993
11.3856
11.452
11.504
11.5464
11.5827
11.6158
11.647
11.6768
11.7048
11.7306
11.7534
11.7729
11.7888
11.8013
11.8108
11.8176
11.8225
11.8257
11.8278
11.8292
11.83
11.8304
11.8307
11.8309
11.8309
11.8309
12.1043
11.9143
11.9175
11.9079
11.8798
11.8514
12.0047
13.1752
12.9822
12.0362
11.3253
10.9754
10.4303
10.3659
10.4884
10.6897
10.9153
11.1365
11.3391
11.517
11.6683
11.7936
11.8943
11.9731
12.0329
12.0774
12.1106
12.1365
12.1583
12.1789
12.1996
12.2209
12.2427
12.2642
12.2844
12.3024
12.3179
12.3305
12.3404
12.3478
12.353
12.3567
12.3591
12.3606
12.3615
12.362
12.3623
12.3625
12.3626
12.3626
12.357
12.175
12.1884
12.1998
12.2128
12.2621
12.5313
13.6219
14.1917
13.927
13.5453
13.2775
12.801
12.37
12.1376
12.0511
12.0491
12.0905
12.1513
12.2178
12.2819
12.339
12.3865
12.4231
12.4491
12.4658
12.4753
12.4807
12.4848
12.4899
12.4977
12.5086
12.5222
12.5377
12.5538
12.5694
12.5835
12.5955
12.6052
12.6127
12.6182
12.622
12.6246
12.6262
12.6272
12.6278
12.6281
12.6283
12.6284
12.6284
12.3573
12.1787
12.2021
12.2345
12.2876
12.4082
12.7688
13.7893
14.6541
14.8586
14.8103
14.6999
14.3421
13.8372
13.4209
13.1282
12.9343
12.8096
12.7318
12.6852
12.6585
12.6434
12.6337
12.6248
12.614
12.6004
12.5845
12.568
12.5532
12.5422
12.5363
12.5359
12.5407
12.5496
12.5609
12.5733
12.5854
12.5963
12.6055
12.6127
12.6181
12.622
12.6246
12.6262
12.6272
12.6278
12.6281
12.6283
12.6284
12.6284
12.1051
11.9254
11.9584
12.0113
12.1025
12.2864
12.7179
13.6827
14.644
15.1262
15.3278
15.3702
15.1376
14.6768
14.1986
13.7863
13.4549
13.1973
13.0013
12.8546
12.7455
12.664
12.601
12.5495
12.5042
12.4622
12.4225
12.3858
12.3536
12.3276
12.3091
12.2984
12.295
12.2975
12.3042
12.3133
12.3232
12.3327
12.341
12.3477
12.3528
12.3565
12.359
12.3606
12.3615
12.3621
12.3624
12.3625
12.3626
12.3626
11.5999
11.4141
11.4565
11.529
11.6555
11.8945
12.3807
13.3036
14.2809
14.9114
15.27
15.4207
15.2852
14.8922
14.4107
13.9403
13.5232
13.1731
12.89
12.6671
12.4945
12.361
12.2561
12.1709
12.0982
12.0336
11.9751
11.9223
11.8765
11.8389
11.8106
11.7919
11.7819
11.7792
11.782
11.7882
11.796
11.8041
11.8114
11.8175
11.8221
11.8255
11.8277
11.8292
11.83
11.8305
11.8308
11.8309
11.831
11.831
10.841
10.6429
10.6947
10.786
10.9441
11.229
11.7564
12.6472
13.6073
14.3041
14.7416
14.9461
14.8634
14.5184
14.0473
13.5516
13.0882
12.6847
12.35
12.0814
11.8705
11.7057
11.5756
11.4698
11.3803
11.3019
11.2318
11.1694
11.1154
11.0709
11.0367
11.013
10.999
10.993
10.9931
10.9971
11.0032
11.01
11.0163
11.0216
11.0256
11.0286
11.0305
11.0318
11.0325
11.0329
11.0331
11.0332
11.0332
11.0332
9.82701
9.60934
9.67159
9.78008
9.96415
10.284
10.8382
11.6987
12.623
13.3294
13.783
13.9894
13.9138
13.5846