# vtk DataFile Version 3.0
vtk output405
ASCII
DATASET STRUCTURED_GRID
DIMENSIONS 41 21 1
POINTS 861 float
0 0 0
0.15 0 0
0.3 0 0
0.45 0 0
0.6 0 0
0.75 0 0
0.9 0 0
1.05 0 0
1.2 0 0
1.35 0 0
1.5 0 0
1.65 0 0
1.8 0 0
1.95 0 0
2.1 0 0
2.25 0 0
2.4 0 0
2.55 0 0
2.7 0 0
2.85 0 0
3 0 0
3.15 0 0
3.3 0 0
3.45 0 0
3.6 0 0
3.75 0 0
3.9 0 0
4.05 0 0
4.2 0 0
4.35 0 0
4.5 0 0
4.65 0 0
4.8 0 0
4.95 0 0
5.1 0 0
5.25 0 0
5.4 0 0
5.55 0 0
5.7 0 0
5.85 0 0
6 0 0
0 0.25 0
0.15 0.25 0
0.3 0.25 0
0.45 0.25 0
0.6 0.25 0
0.75 0.25 0
0.9 0.25 0
1.05 0.25 0
1.2 0.25 0
1.35 0.25 0
1.5 0.25 0
1.65 0.25 0
1.8 0.25 0
1.95 0.25 0
2.1 0.25 0
2.25 0.25 0
2.4 0.25 0
2.55 0.25 0
2.7 0.25 0
2.85 0.25 0
3 0.25 0
3.15 0.25 0
3.3 0.25 0
3.45 0.25 0
3.6 0.25 0
3.75 0.25 0
3.9 0.25 0
4.05 0.25 0
4.2 0.25 0
4.35 0.25 0
4.5 0.25 0
4.65 0.25 0
4.8 0.25 0
4.95 0.25 0
5.1 0.25 0
5.25 0.25 0
5.4 0.25 0
5.55 0.25 0
5.7 0.25 0
5.85 0.25 0
6 0.25 0
0 0.5 0
0.15 0.5 0
0.3 0.5 0
0.45 0.5 0
0.6 0.5 0
0.75 0.5 0
0.9 0.5 0
1.05 0.5 0
1.2 0.5 0
1.35 0.5 0
1.5 0.5 0
1.65 0.5 0
1.8 0.5 0
1.95 0.5 0
2.1 0.5 0
2.25 0.5 0
2.4 0.5 0
2.55 0.5 0
2.7 0.5 0
2.85 0.5 0
3 0.5 0
3.15 0.5 0
3.3 0.5 0
3.45 0.5 0
3.6 0.5 0
3.75 0.5 0
3.9 0.5 0
4.05 0.5 0
4.2 0.5 0
4.35 0.5 0
4.5 0.5 0
4.65 0.5 0
4.8 0.5 0
4.95 0.5 0
5.1 0.5 0
5.25 0.5 0
5.4 0.5 0
5.55 0.5 0
5.7 0.5 0
5.85 0.5 0
6 0.5 0
0 0.75 0
0.15 0.75 0
0.3 0.75 0
0.45 0.75 0
0.6 0.75 0
0.75 0.75 0
0.9 0.75 0
1.05 0.75 0
1.2 0.75 0
1.35 0.75 0
1.5 0.75 0
1.65 0.75 0
1.8 0.75 0
1.95 0.75 0
2.1 0.75 0
2.25 0.75 0
2.4 0.75 0
2.55 0.75 0
2.7 0.75 0
2.85 0.75 0
3 0.75 0
3.15 0.75 0
3.3 0.75 0
3.45 0.75 0
3.6 0.75 0
3.75 0.75 0
3.9 0.75 0
4.05 0.75 0
4.2 0.75 0
4.35 0.75 0
4.5 0.75 0
4.65 0.75 0
4.8 0.75 0
4.95 0.75 0
5.1 0.75 0
5.25 0.75 0
5.4 0.75 0
5.55 0.75 0
5.7 0.75 0
5.85 0.75 0
6 0.75 0
0 1 0
0.15 1 0
0.3 1 0
0.45 1 0
0.6 1 0
0.75 1 0
0.9 1 0
1.05 1 0
1.2 1 0
1.35 1 0
1.5 1 0
1.65 1 0
1.8 1 0
1.95 1 0
2.1 1 0
2.25 1 0
2.4 1 0
2.55 1 0
2.7 1 0
2.85 1 0
3 1 0
3.15 1 0
3.3 1 0
3.45 1 0
3.6 1 0
3.75 1 0
3.9 1 0
4.05 1 0
4.2 1 0
4.35 1 0
4.5 1 0
4.65 1 0
4.8 1 0
4.95 1 0
5.1 1 0
5.25 1 0
5.4 1 0
5.55 1 0
5.7 1 0
5.85 1 0
6 1 0
0 1.25 0
0.15 1.25 0
0.3 1.25 0
0.45 1.25 0
0.6 1.25 0
0.75 1.25 0
0.9 1.25 0
1.05 1.25 0
1.2 1.25 0
1.35 1.25 0
1.5 1.25 0
1.65 1.25 0
1.8 1.25 0
1.95 1.25 0
2.1 1.25 0
2.25 1.25 0
2.4 1.25 0
2.55 1.25 0
2.7 1.25 0
2.85 1.25 0
3 1.25 0
3.15 1.25 0
3.3 1.25 0
3.45 1.25 0
3.6 1.25 0
3.75 1.25 0
3.9 1.25 0
4.05 1.25 0
4.2 1.25 0
4.35 1.25 0
4.5 1.25 0
4.65 1.25 0
4.8 1.25 0
4.95 1.25 0
5.1 1.25 0
5.25 1.25 0
5.4 1.25 0
5.55 1.25 0
5.7 1.25 0
5.85 1.25 0
6 1.25 0
0 1.5 0
0.15 1.5 0
0.3 1.5 0
0.45 1.5 0
0.6 1.5 0
0.75 1.5 0
0.9 1.5 0
1.05 1.5 0
1.2 1.5 0
1.35 1.5 0
1.5 1.5 0
1.65 1.5 0
1.8 1.5 0
1.95 1.5 0
2.1 1.5 0
2.25 1.5 0
2.4 1.5 0
2.55 1.5 0
2.7 1.5 0
2.85 1.5 0
3 1.5 0
3.15 1.5 0
3.3 1.5 0
3.45 1.5 0
3.6 1.5 0
3.75 1.5 0
3.9 1.5 0
4.05 1.5 0
4.2 1.5 0
4.35 1.5 0
4.5 1.5 0
4.65 1.5 0
4.8 1.5 0
4.95 1.5 0
5.1 1.5 0
5.25 1.5 0
5.4 1.5 0
5.55 1.5 0
5.7 1.5 0
5.85 1.5 0
6 1.5 0
0 1.75 0
0.15 1.75 0
0.3 1.75 0
0.45 1.75 0
0.6 1.75 0
0.75 1.75 0
0.9 1.75 0
1.05 1.75 0
1.2 1.75 0
1.35 1.75 0
1.5 1.75 0
1.65 1.75 0
1.8 1.75 0
1.95 1.75 0
2.1 1.75 0
2.25 1.75 0
2.4 1.75 0
2.55 1.75 0
2.7 1.75 0
2.85 1.75 0
3 1.75 0
3.15 1.75 0
3.3 1.75 0
3.45 1.75 0
3.6 1.75 0
3.75 1.75 0
3.9 1.75 0
4.05 1.75 0
4.2 1.75 0
4.35 1.75 0
4.5 1.75 0
4.65 1.75 0
4.8 1.75 0
4.95 1.75 0
5.1 1.75 0
5.25 1.75 0
5.4 1.75 0
5.55 1.75 0
5.7 1.75 0
5.85 1.75 0
6 1.75 0
0 2 0
0.15 2 0
0.3 2 0
0.45 2 0
0.6 2 0
0.75 2 0
0.9 2 0
1.05 2 0
1.2 2 0
1.35 2 0
1.5 2 0
1.65 2 0
1.8 2 0
1.95 2 0
2.1 2 0
2.25 2 0
2.4 2 0
2.55 2 0
2.7 2 0
2.85 2 0
3 2 0
3.15 2 0
3.3 2 0
3.45 2 0
3.6 2 0
3.75 2 0
3.9 2 0
4.05 2 0
4.2 2 0
4.35 2 0
4.5 2 0
4.65 2 0
4.8 2 0
4.95 2 0
5.1 2 0
5.25 2 0
5.4 2 0
5.55 2 0
5.7 2 0
5.85 2 0
6 2 0
0 2.25 0
0.15 2.25 0
0.3 2.25 0
0.45 2.25 0
0.6 2.25 0
0.75 2.25 0
0.9 2.25 0
1.05 2.25 0
1.2 2.25 0
1.35 2.25 0
1.5 2.25 0
1.65 2.25 0
1.8 2.25 0
1.95 2.25 0
2.1 2.25 0
2.25 2.25 0
2.4 2.25 0
2.55 2.25 0
2.7 2.25 0
2.85 2.25 0
3 2.25 0
3.15 2.25 0
3.3 2.25 0
3.45 2.25 0
3.6 2.25 0
3.75 2.25 0
3.9 2.25 0
4.05 2.25 0
4.2 2.25 0
4.35 2.25 0
4.5 2.25 0
4.65 2.25 0
4.8 2.25 0
4.95 2.25 0
5.1 2.25 0
5.25 2.25 0
5.4 2.25 0
5.55 2.25 0
5.7 2.25 0
5.85 2.25 0
6 2.25 0
0 2.5 0
0.15 2.5 0
0.3 2.5 0
0.45 2.5 0
0.6 2.5 0
0.75 2.5 0
0.9 2.5 0
1.05 2.5 0
1.2 2.5 0
1.35 2.5 0
1.5 2.5 0
1.65 2.5 0
1.8 2.5 0
1.95 2.5 0
2.1 2.5 0
2.25 2.5 0
2.4 2.5 0
2.55 2.5 0
2.7 2.5 0
2.85 2.5 0
3 2.5 0
3.15 2.5 0
3.3 2.5 0
3.45 2.5 0
3.6 2.5 0
3.75 2.5 0
3.9 2.5 0
4.05 2.5 0
4.2 2.5 0
4.35 2.5 0
4.5 2.5 0
4.65 2.5 0
4.8 2.5 0
4.95 2.5 0
5.1 2.5 0
5.25 2.5 0
5.4 2.5 0
5.55 2.5 0
5.7 2.5 0
5.85 2.5 0
6 2.5 0
0 2.75 0
0.15 2.75 0
0.3 2.75 0
0.45 2.75 0
0.6 2.75 0
0.75 2.75 0
0.9 2.75 0
1.05 2.75 0
1.2 2.75 0
1.35 2.75 0
1.5 2.75 0
1.65 2.75 0
1.8 2.75 0
1.95 2.75 0
2.1 2.75 0
2.25 2.75 0
2.4 2.75 0
2.55 2.75 0
2.7 2.75 0
2.85 2.75 0
3 2.75 0
3.15 2.75 0
3.3 2.75 0
3.45 2.75 0
3.6 2.75 0
3.75 2.75 0
3.9 2.75 0
4.05 2.75 0
4.2 2.75 0
4.35 2.75 0
4.5 2.75 0
4.65 2.75 0
4.8 2.75 0
4.95 2.75 0
5.1 2.75 0
5.25 2.75 0
5.4 2.75 0
5.55 2.75 0
5.7 2.75 0
5.85 2.75 0
6 2.75 0
0 3 0
0.15 3 0
0.3 3 0
0.45 3 0
0.6 3 0
0.75 3 0
0.9 3 0
1.05 3 0
1.2 3 0
1.35 3 0
1.5 3 0
1.65 3 0
1.8 3 0
1.95 3 0
2.1 3 0
2.25 3 0
2.4 3 0
2.55 3 0
2.7 3 0
2.85 3 0
3 3 0
3.15 3 0
3.3 3 0
3.45 3 0
3.6 3 0
3.75 3 0
3.9 3 0
4.05 3 0
4.2 3 0
4.35 3 0
4.5 3 0
4.65 3 0
4.8 3 0
4.95 3 0
5.1 3 0
5.25 3 0
5.4 3 0
5.55 3 0
5.7 3 0
5.85 3 0
6 3 0
0 3.25 0
0.15 3.25 0
0.3 3.25 0
0.45 3.25 0
0.6 3.25 0
0.75 3.25 0
0.9 3.25 0
1.05 3.25 0
1.2 3.25 0
1.35 3.25 0
1.5 3.25 0
1.65 3.25 0
1.8 3.25 0
1.95 3.25 0
2.1 3.25 0
2.25 3.25 0
2.4 3.25 0
2.55 3.25 0
2.7 3.25 0
2.85 3.25 0
3 3.25 0
3.15 3.25 0
3.3 3.25 0
3.45 3.25 0
3.6 3.25 0
3.75 3.25 0
3.9 3.25 0
4.05 3.25 0
4.2 3.25 0
4.35 3.25 0
4.5 3.25 0
4.65 3.25 0
4.8 3.25 0
4.95 3.25 0
5.1 3.25 0
5.25 3.25 0
5.4 3.25 0
5.55 3.25 0
5.7 3.25 0
5.85 3.25 0
6 3.25 0
0 3.5 0
0.15 3.5 0
0.3 3.5 0
0.45 3.5 0
0.6 3.5 0
0.75 3.5 0
0.9 3.5 0
1.05 3.5 0
1.2 3.5 0
1.35 3.5 0
1.5 3.5 0
1.65 3.5 0
1.8 3.5 0
1.95 3.5 0
2.1 3.5 0
2.25 3.5 0
2.4 3.5 0
2.55 3.5 0
2.7 3.5 0
2.85 3.5 0
3 3.5 0
3.15 3.5 0
3.3 3.5 0
3.45 3.5 0
3.6 3.5 0
3.75 3.5 0
3.9 3.5 0
4.05 3.5 0
4.2 3.5 0
4.35 3.5 0
4.5 3.5 0
4.65 3.5 0
4.8 3.5 0
4.95 3.5 0
5.1 3.5 0
5.25 3.5 0
5.4 3.5 0
5.55 3.5 0
5.7 3.5 0
5.85 3.5 0
6 3.5 0
0 3.75 0
0.15 3.75 0
0.3 3.75 0
0.45 3.75 0
0.6 3.75 0
0.75 3.75 0
0.9 3.75 0
1.05 3.75 0
1.2 3.75 0
1.35 3.75 0
1.5 3.75 0
1.65 3.75 0
1.8 3.75 0
1.95 3.75 0
2.1 3.75 0
2.25 3.75 0
2.4 3.75 0
2.55 3.75 0
2.7 3.75 0
2.85 3.75 0
3 3.75 0
3.15 3.75 0
3.3 3.75 0
3.45 3.75 0
3.6 3.75 0
3.75 3.75 0
3.9 3.75 0
4.05 3.75 0
4.2 3.75 0
4.35 3.75 0
4.5 3.75 0
4.65 3.75 0
4.8 3.75 0
4.95 3.75 0
5.1 3.75 0
5.25 3.75 0
5.4 3.75 0
5.55 3.75 0
5.7 3.75 0
5.85 3.75 0
6 3.75 0
0 4 0
0.15 4 0
0.3 4 0
0.45 4 0
0.6 4 0
0.75 4 0
0.9 4 0
1.05 4 0
1.2 4 0
1.35 4 0
1.5 4 0
1.65 4 0
1.8 4 0
1.95 4 0
2.1 4 0
2.25 4 0
2.4 4 0
2.55 4 0
2.7 4 0
2.85 4 0
3 4 0
3.15 4 0
3.3 4 0
3.45 4 0
3.6 4 0
3.75 4 0
3.9 4 0
4.05 4 0
4.2 4 0
4.35 4 0
4.5 4 0
4.65 4 0
4.8 4 0
4.95 4 0
5.1 4 0
5.25 4 0
5.4 4 0
5.55 4 0
5.7 4 0
5.85 4 0
6 4 0
0 4.25 0
0.15 4.25 0
0.3 4.25 0
0.45 4.25 0
0.6 4.25 0
0.75 4.25 0
0.9 4.25 0
1.05 4.25 0
1.2 4.25 0
1.35 4.25 0
1.5 4.25 0
1.65 4.25 0
1.8 4.25 0
1.95 4.25 0
2.1 4.25 0
2.25 4.25 0
2.4 4.25 0
2.55 4.25 0
2.7 4.25 0
2.85 4.25 0
3 4.25 0
3.15 4.25 0
3.3 4.25 0
3.45 4.25 0
3.6 4.25 0
3.75 4.25 0
3.9 4.25 0
4.05 4.25 0
4.2 4.25 0
4.35 4.25 0
4.5 4.25 0
4.65 4.25 0
4.8 4.25 0
4.95 4.25 0
5.1 4.25 0
5.25 4.25 0
5.4 4.25 0
5.55 4.25 0
5.7 4.25 0
5.85 4.25 0
6 4.25 0
0 4.5 0
0.15 4.5 0
0.3 4.5 0
0.45 4.5 0
0.6 4.5 0
0.75 4.5 0
0.9 4.5 0
1.05 4.5 0
1.2 4.5 0
1.35 4.5 0
1.5 4.5 0
1.65 4.5 0
1.8 4.5 0
1.95 4.5 0
2.1 4.5 0
2.25 4.5 0
2.4 4.5 0
2.55 4.5 0
2.7 4.5 0
2.85 4.5 0
3 4.5 0
3.15 4.5 0
3.3 4.5 0
3.45 4.5 0
3.6 4.5 0
3.75 4.5 0
3.9 4.5 0
4.05 4.5 0
4.2 4.5 0
4.35 4.5 0
4.5 4.5 0
4.65 4.5 0
4.8 4.5 0
4.95 4.5 0
5.1 4.5 0
5.25 4.5 0
5.4 4.5 0
5.55 4.5 0
5.7 4.5 0
5.85 4.5 0
6 4.5 0
0 4.75 0
0.15 4.75 0
0.3 4.75 0
0.45 4.75 0
0.6 4.75 0
0.75 4.75 0
0.9 4.75 0
1.05 4.75 0
1.2 4.75 0
1.35 4.75 0
1.5 4.75 0
1.65 4.75 0
1.8 4.75 0
1.95 4.75 0
2.1 4.75 0
2.25 4.75 0
2.4 4.75 0
2.55 4.75 0
2.7 4.75 0
2.85 4.75 0
3 4.75 0
3.15 4.75 0
3.3 4.75 0
3.45 4.75 0
3.6 4.75 0
3.75 4.75 0
3.9 4.75 0
4.05 4.75 0
4.2 4.75 0
4.35 4.75 0
4.5 4.75 0
4.65 4.75 0
4.8 4.75 0
4.95 4.75 0
5.1 4.75 0
5.25 4.75 0
5.4 4.75 0
5.55 4.75 0
5.7 4.75 0
5.85 4.75 0
6 4.75 0
0 5 0
0.15 5 0
0.3 5 0
0.45 5 0
0.6 5 0
0.75 5 0
0.9 5 0
1.05 5 0
1.2 5 0
1.35 5 0
1.5 5 0
1.65 5 0
1.8 5 0
1.95 5 0
2.1 5 0
2.25 5 0
2.4 5 0
2.55 5 0
2.7 5 0
2.85 5 0
3 5 0
3.15 5 0
3.3 5 0
3.45 5 0
3.6 5 0
3.75 5 0
3.9 5 0
4.05 5 0
4.2 5 0
4.35 5 0
4.5 5 0
4.65 5 0
4.8 5 0
4.95 5 0
5.1 5 0
5.25 5 0
5.4 5 0
5.55 5 0
5.7 5 0
5.85 5 0
6 5 0

CELL_DATA 800
SCALARS phi float
LOOKUP_TABLE default 
4.711
4.711
4.711
4.711
4.711
4.711
4.711
4.711
4.711
4.711
4.711
4.711
4.711
4.711
4.711
4.711
4.711
4.711
4.711
4.711
4.711
4.711
4.711
4.711
4.711
4.711
4.711
4.711
4.711
4.711
4.711
4.711
4.711
4.711
4.711
4.711
4.711
4.711
4.711
4.711
4.711
4.711
4.711
4.711
4.711
4.711
4.711
4.711
4.711
4.711
4.711
4.711
4.711
4.711
4.711
4.711
4.711
4.711
4.711
4.711
4.711
4.711
4.711
4.711
4.711
4.711
4.711
4.711
4.711
4.711
4.711
4.711
4.711
4.711
4.711
4.711
4.711
4.711
4.711
4.711
4.711
4.711
4.711
4.711
4.711
4.711
4.711
4.711
4.711
4.711
4.711
4.711
4.711
4.711
4.711
4.711
4.711
4.711
4.711
4.711
4.711
4.711
4.711
4.711
4.711
4.711
4.711
4.711
4.711
4.711
4.711
4.711
4.711
4.711
4.711
4.711
4.711
4.711
4.711
4.711
4.711
4.711
4.711
4.711
4.711
4.711
4.711
4.711
4.711
4.711
4.711
4.711
4.711
4.711
4.711
4.711
4.711
4.711
4.711
4.711
4.711
4.711
4.711
4.711
4.711
4.711
4.711
4.711
4.711
4.711
4.711
4.711
4.711
4.711
4.711
4.711
4.711
4.711
4.711
4.711
4.711
4.711
4.711
4.711
4.711
4.711
4.711
4.711
4.711
4.711
4.711
4.711
4.711
4.711
4.711
4.711
4.711
4.711
4.711
4.711
4.711
4.711
4.711
4.711
4.711
4.711
4.711
4.711
4.711
4.711
4.711
4.711
4.711
4.711
4.711
4.711
4.711
4.711
4.711
4.711
4.711
4.711
4.711
4.711
4.711
4.711
4.711
4.711
4.711
4.711
4.711
4.711
4.711
4.711
4.711
4.711
4.711
4.711
4.711
4.711
4.711
4.711
4.711
4.711
4.711
4.711
4.711
4.711
4.711
4.711
4.711
4.711
4.711
4.711
4.711
4.711
4.711
4.711
4.711
4.711
4.711
4.711
4.711
4.711
4.711
4.711
4.711
4.711
4.711
4.711
4.711
4.711
4.711
4.711
4.711
4.711
4.711
4.711
4.711
4.711
4.711
4.711
4.711
4.711
4.711
4.711
4.711
4.711
4.711
4.711
4.711
4.711
4.711
4.711
4.711
4.711
4.711
4.711
4.711
4.711
4.711
4.711
4.711
4.711
4.711
4.711
4.711
4.711
4.711
4.711
4.711
4.711
4.711
4.711
4.711
4.711
4.711
4.711
4.711
4.711
4.711
4.711
4.711
4.711
4.711
4.711
4.711
4.711
4.711
4.711
4.711
4.711
4.711
4.711
4.711
4.711
4.711
4.711
4.711
4.711
4.711
4.711
4.711
4.711
4.711
4.711
4.711
4.711
4.711
4.711
4.711
4.711
4.711
4.711
4.711
4.711
4.711
4.711
4.711
4.711
4.711
4.711
4.711
4.711
4.711
4.711
4.711
4.711
4.711
4.711
4.711
4.711
4.711
4.711
4.711
4.711
4.711
4.711
4.711
4.711
4.711
4.711
4.711
4.711
4.711
4.711
4.711
4.711
4.711
4.711
4.711
4.711
4.711
4.711
4.711
4.711
4.711
4.711
4.711
4.711
4.711
4.711
4.711
4.711
4.711
4.711
4.711
4.711
4.711
4.711
4.711
4.711
4.711
4.711
4.711
4.711
4.711
4.711
4.711
4.711
4.711
4.711
4.711
4.711
4.711
4.711
4.711
4.711
4.711
4.711
4.711
4.711
4.711
4.711
4.711
4.711
4.711
4.711
4.711
4.711
4.711
4.711
4.711
4.711
4.711
4.711
4.711
4.711
4.711
4.711
4.711
4.711
4.711
4.711
4.711
4.711
4.711
4.711
4.711
4.711
4.711
4.711
4.711
4.711
4.711
4.711
4.711
4.711
4.711
4.711
4.711
4.711
4.711
4.711
4.711
4.711
4.711
4.711
4.711
4.711
4.711
4.711
4.711
4.711
4.711
4.711
4.711
4.711
4.711
4.711
4.711
4.711
4.711
4.711
4.711
4.711
4.711
4.711
4.711
4.711
4.711
4.711
4.711
4.711
4.711
4.711
4.711
4.711
4.711
4.711
4.711
4.711
4.711
4.711
4.711
4.711
4.711
4.711
4.711
4.711
4.711
4.711
4.711
4.711
4.711
4.711
4.711
4.711
4.711
4.711
4.711
4.711
4.711
4.711
4.711
4.711
4.711
4.711
4.711
4.711
4.711
4.711
4.711
4.711
4.711
4.711
4.711
4.711
4.711
4.711
4.711
4.711
4.711
4.711
4.711
4.711
4.711
4.711
4.711
4.711
4.711
4.711
4.711
4.711
4.711
4.711
4.711
4.711
4.711
4.711
4.711
4.711
4.711
4.711
4.711
4.711
4.711
4.711
4.711
4.711
4.711
4.711
4.711
4.711
4.711
4.711
4.711
4.711
4.711
4.711
4.711
4.711
4.711
4.711
4.711
4.711
4.711
4.711
4.711
4.711
4.711
4.711
4.711
4.711
4.711
4.711
4.711
4.711
4.711
4.711
4.711
4.711
4.711
4.711
4.711
4.711
4.711
4.711
4.711
4.711
4.711
4.711
4.711
4.711
4.711
4.711
4.711
4.711
4.711
4.711
4.711
4.711
4.711
4.711
4.711
4.711
4.711
4.711
4.711
4.711
4.711
4.711
4.711
4.711
4.711
4.711
4.711
4.711
4.711
4.711
4.711
4.711
4.711
4.711
4.711
4.711
4.711
4.711
4.711
4.711
4.711
4.711
4.711
4.711
4.711
4.711
4.711
4.711
4.711
4.711
4.711
4.711
4.711
4.711
4.711
4.711
4.711
4.711
4.711
4.711
4.711
4.711
4.711
4.711
4.711
4.711
4.711
4.711
4.711
4.711
4.711
4.711
4.711
4.711
4.711
4.711
4.711
4.711
4.711
4.711
4.711
4.711
4.711
4.711
4.711
4.711
4.711
4.711
4.711
4.711
4.711
4.711
4.711
4.711
4.711
4.711
4.711
4.711
4.711
4.711
4.711
4.711
4.711
4.711
4.711
4.711
4.711
4.711
4.711
4.711
4.711
4.711
4.711
4.711
4.711
4.711
4.711
4.711
4.711
4.711
4.711
4.711
4.711
4.711
4.711
4.711
4.711
4.711
4.711
4.711
4.711
4.711
4.711
4.711
4.711
4.711
4.711
4.711
4.711
4.711
4.711
4.711
4.711
4.711
4.711
4.711
4.711
4.711
4.711
4.711
4.711
4.711
4.711
4.711
4.711
4.711
4.711
4.711
4.711
4.711
4.711
4.711
4.711
4.711
4.711
4.711
4.711
4.711
4.711
4.711
4.711
4.711
4.711
4.711
4.711
4.711
4.711
4.711
4.711
4.711
4.711
4.711
4.711
4.711
4.711
4.711
4.711
4.711
4.711
4.711
4.711
4.711
4.711
4.711
4.711
4.711
4.711
4.711
4.711
4.711

SCALARS p float
LOOKUP_TABLE default 
126.069
126.069
125.917
125.846
125.853
125.948
125.948
0
0
0
-57.2739
-57.2739
-57.693
-58.3508
-59.055
-59.5343
-59.4256
-58.5016
-56.4747
-53.1532
-48.6227
-43.1755
-37.2066
-31.1184
-25.2511
-19.8452
-15.0338
-10.8546
-7.28204
-4.20825
-1.60052
0.570139
2.3881
3.92653
5.24674
6.39885
7.4232
8.35207
9.21256
10
126.069
126.069
125.917
125.846
125.853
125.948
125.948
0
0
0
-57.2739
-57.2739
-57.693
-58.3508
-59.055
-59.5343
-59.4256
-58.5016
-56.4747
-53.1532
-48.6227
-43.1755
-37.2066
-31.1184
-25.2511
-19.8452
-15.0338
-10.8546
-7.28204
-4.20825
-1.60052
0.570139
2.3881
3.92653
5.24674
6.39885
7.4232
8.35207
9.21256
10
125.447
125.447
125.32
125.294
125.354
125.524
125.524
0
0
0
-58.4028
-58.4028
-59.0232
-59.9864
-61.1458
-62.2016
-62.7647
-62.4171
-60.609
-57.0183
-51.935
-45.8329
-39.2269
-32.5821
-26.2625
-20.508
-15.4417
-11.077
-7.25973
-4.08947
-1.46504
0.706175
2.513
4.03356
5.33318
6.46484
7.47075
8.38453
9.23435
10
123.618
123.618
123.468
123.448
123.528
123.75
123.75
0
0
0
-60.6006
-60.6006
-61.5686
-63.1587
-65.1348
-67.0947
-68.4733
-68.6548
-66.9508
-62.8489
-56.922
-49.8705
-42.3426
-34.8784
-27.8796
-21.5877
-15.984
-11.1969
-7.2007
-3.91784
-1.24116
0.941104
2.73284
4.22363
5.48695
6.58109
7.5515
8.43358
9.25626
10
119.917
119.917
119.678
119.527
119.454
119.586
119.586
0
0
0
-62.5533
-62.5533
-63.7971
-66.0703
-69.0253
-72.1351
-74.6105
-75.5081
-73.6648
-68.8274
-61.9003
-53.8059
-45.2704
-36.9188
-29.1376
-22.1732
-16.1347
-11.0513
-6.87141
-3.49247
-0.78624
1.37937
3.12582
4.5564
5.75421
6.78351
7.69282
8.51851
9.28906
10
113.986
113.986
113.513
112.868
112.086
111.554
111.554
0
0
0
-62.9621
-62.9621
-64.1957
-66.9228
-70.761
-75.0377
-78.7268
-80.4353
-78.2622
-72.6864
-64.8064
-55.7404
-46.3719
-37.3334
-29.0299
-21.692
-15.4164
-10.2021
-5.97488
-2.61282
0.030071
2.10264
3.74108
5.06012
6.15047
7.08044
7.89971
8.64375
9.3387
10
106.253
106.253
105.291
103.384
100.287
96.3562
96.3562
-1.00042
-26.8142
-44.1524
-62.5118
-62.5118
-62.6611
-65.3143
-69.8292
-75.1039
-79.6954
-81.2542
-78.1281
-71.8822
-63.5031
-54.0659
-44.4493
-35.2753
-26.9356
-19.6423
-13.4737
-8.4105
-4.36411
-1.20042
1.23748
3.10854
4.55745
5.70472
6.64372
7.44256
8.1486
8.79363
9.3992
10
98.3908
98.3908
96.8665
93.1707
85.7411
71.5052
44.4582
-1.00042
-26.8142
-44.1524
-55.0705
-57.5424
-59.3807
-62.9075
-67.947
-73.4753
-77.3371
-76.6332
-72.8036
-66.3368
-58.0864
-48.9648
-39.7479
-31.0058
-23.1072
-16.253
-10.5144
-5.86585
-2.21278
0.584964
2.6901
4.2664
5.46112
6.39446
7.15656
7.81025
8.39664
8.94107
9.45855
10
92.7856
92.7856
91.3425
87.6783
80.3576
67.0475
45.1554
16.2419
-9.09527
-28.6442
-42.1407
-50.3276
-55.9908
-60.9682
-65.7299
-69.4959
-70.5333
-68.9858
-64.9007
-58.7036
-51.0553
-42.6779
-34.2225
-26.1989
-18.9574
-12.6999
-7.50433
-3.35098
-0.147123
2.2488
4.0026
5.28037
6.22891
6.96437
7.57003
8.10057
8.58904
9.05358
9.50266
10
90.3365
90.3365
89.3827
86.8707
81.7593
72.2116
55.9594
32.7102
8.08385
-13.6081
-30.4921
-42.6271
-51.2927
-57.6946
-62.3047
-64.7669
-65.1176
-63.2852
-59.334
-53.5971
-46.5923
-38.9102
-31.1122
-23.6637
-16.9034
-11.0403
-6.16605
-2.27508
0.713537
2.93232
4.54031
5.69846
6.54949
7.20599
7.74795
8.2269
8.67297
9.1017
9.51929
10
90.3365
90.3365
89.3827
86.8707
81.7593
72.2116
55.9594
32.7102
8.08385
-13.6081
-30.4921
-42.6271
-51.2927
-57.6946
-62.3047
-64.7669
-65.1176
-63.2852
-59.334
-53.5971
-46.5923
-38.9102
-31.1122
-23.6637
-16.9034
-11.0403
-6.16605
-2.27508
0.713537
2.93232
4.54031
5.69846
6.54949
7.20599
7.74795
8.2269
8.67297
9.1017
9.51929
10
92.7856
92.7856
91.3425
87.6783
80.3576
67.0475
45.1554
16.2419
-9.09527
-28.6442
-42.1407
-50.3276
-55.9908
-60.9682
-65.7299
-69.4959
-70.5333
-68.9858
-64.9007
-58.7036
-51.0553
-42.6779
-34.2225
-26.1989
-18.9574
-12.6999
-7.50433
-3.35098
-0.147123
2.2488
4.0026
5.28037
6.22891
6.96437
7.57003
8.10057
8.58904
9.05358
9.50266
10
98.3908
98.3908
96.8665
93.1707
85.7411
71.5052
44.4582
-1.00042
-26.8142
-44.1524
-55.0705
-57.5424
-59.3807
-62.9075
-67.947
-73.4753
-77.3371
-76.6332
-72.8036
-66.3368
-58.0864
-48.9648
-39.7479
-31.0058
-23.1072
-16.253
-10.5144
-5.86585
-2.21278
0.584964
2.6901
4.2664
5.46112
6.39446
7.15656
7.81025
8.39664
8.94107
9.45855
10
106.253
106.253
105.291
103.384
100.287
96.3562
96.3562
-1.00042
-26.8142
-44.1524
-62.5118
-62.5118
-62.6611
-65.3143
-69.8292
-75.1039
-79.6954
-81.2542
-78.1281
-71.8822
-63.5031
-54.0659
-44.4493
-35.2753
-26.9356
-19.6423
-13.4737
-8.4105
-4.36411
-1.20042
1.23748
3.10854
4.55745
5.70472
6.64372
7.44256
8.1486
8.79363
9.3992
10
113.986
113.986
113.513
112.868
112.086
111.554
111.554
0
0
0
-62.9621
-62.9621
-64.1957
-66.9228
-70.761
-75.0377
-78.7268
-80.4353
-78.2622
-72.6864
-64.8064
-55.7404
-46.3719
-37.3334
-29.0299
-21.692
-15.4164
-10.2021
-5.97488
-2.61282
0.030071
2.10264
3.74108
5.06012
6.15047
7.08044
7.89971
8.64375
9.3387
10
119.917
119.917
119.678
119.527
119.454
119.586
119.586
0
0
0
-62.5533
-62.5533
-63.7971
-66.0703
-69.0253
-72.1351
-74.6105
-75.5081
-73.6648
-68.8274
-61.9003
-53.8059
-45.2704
-36.9188
-29.1376
-22.1732
-16.1347
-11.0513
-6.87141
-3.49247
-0.78624
1.37937
3.12582
4.5564
5.75421
6.78351
7.69282
8.51851
9.28906
10
123.618
123.618
123.468
123.448
123.528
123.75
123.75
0
0
0
-60.6006
-60.6006
-61.5686
-63.1587
-65.1348
-67.0947
-68.4733
-68.6548
-66.9508
-62.8489
-56.922
-49.8705
-42.3426
-34.8784
-27.8796
-21.5877
-15.984
-11.1969
-7.2007
-3.91784
-1.24116
0.941104
2.73284
4.22363
5.48695
6.58109
7.5515
8.43358
9.25626
10
125.447
125.447
125.32
125.294
125.354
125.524
125.524
0
0
0
-58.4028
-58.4028
-59.0232
-59.9864
-61.1458
-62.2016
-62.7647
-62.4171
-60.609
-57.0183
-51.935
-45.8329
-39.2269
-32.5821
-26.2625
-20.508
-15.4417
-11.077
-7.25973
-4.08947
-1.46504
0.706175
2.513
4.03356
5.33318
6.46484
7.47075
8.38453
9.23435
10
126.069
126.069
125.917
125.846
125.853
125.948
125.948
0
0
0
-57.2739
-57.2739
-57.693
-58.3508
-59.055
-59.5343
-59.4256
-58.5016
-56.4747
-53.1532
-48.6227
-43.1755
-37.2066
-31.1184
-25.2511
-19.8452
-15.0338
-10.8546
-7.28204
-4.20825
-1.60052
0.570139
2.3881
3.92653
5.24674
6.39885
7.4232
8.35207
9.21256
10
126.069
126.069
125.917
125.846
125.853
125.948
125.948
0
0
0
-57.2739
-57.2739
-57.693
-58.3508
-59.055
-59.5343
-59.4256
-58.5016
-56.4747
-53.1532
-48.6227
-43.1755
-37.2066
-31.1184
-25.2511
-19.8452
-15.0338
-10.8546
-7.28204
-4.20825
-1.60052
0.570139
2.3881
3.92653
5.24674
6.39885
7.4232
8.35207
9.21256
10

SCALARS  u float
LOOKUP_TABLE default 
0.0119792
0.00785734
0.00751172
0.00643292
0.0047002
0.00258304
0
0
0
0
0
-0.00537069
-0.010117
-0.01494
-0.019546
-0.0236746
-0.0269851
-0.0293333
-0.0306565
-0.0308798
-0.0300216
-0.0281943
-0.0255483
-0.0222555
-0.0185131
-0.0145429
-0.0105701
-0.00678589
-0.00332633
-0.000216486
0.00242862
0.00464269
0.0064762
0.00797373
0.00918146
0.0101439
0.0109008
0.0114826
0.0118935
0.0118935
0.0450657
0.0427383
0.03916
0.0328293
0.0241646
0.0142974
0.00224321
0
0
0
-0.00410054
-0.0229401
-0.0408638
-0.0597401
-0.0778182
-0.093903
-0.106651
-0.115063
-0.118834
-0.118093
-0.113098
-0.104508
-0.0930765
-0.0795365
-0.064593
-0.0489525
-0.0333272
-0.0183159
-0.0045271
0.00774659
0.0183517
0.0273139
0.0347655
0.0408718
0.0458116
0.0497605
0.0528795
0.0553035
0.0571079
0.0574566
0.0720115
0.0689336
0.0633611
0.0541434
0.041463
0.0261035
0.00465917
0
0
0
-0.00434293
-0.021106
-0.0364023
-0.0525821
-0.0679202
-0.0811859
-0.0910907
-0.0964538
-0.0959961
-0.0913839
-0.083543
-0.0735426
-0.0621951
-0.0499986
-0.0371746
-0.023795
-0.00998887
0.0039674
0.0174568
0.0299719
0.0412495
0.0511253
0.0595868
0.0667164
0.0726404
0.0775004
0.0814352
0.0845645
0.086951
0.0874719
0.0953148
0.0915278
0.0845752
0.0733611
0.0578397
0.0381999
0.0072734
0
0
0
-0.00292313
-0.0115494
-0.0190706
-0.0279805
-0.0368356
-0.0445524
-0.0497164
-0.0511355
-0.0470064
-0.039521
-0.03008
-0.0200289
-0.0102346
-0.00116247
0.00710499
0.0148875
0.0227852
0.0312992
0.0404481
0.0498261
0.058867
0.0671405
0.0744233
0.080663
0.0859079
0.0902513
0.093798
0.0966414
0.0988334
0.0993314
0.115312
0.111525
0.104513
0.092843
0.07584
0.0524916
0.0104287
0
0
0
-0.000791733
0.00132261
0.00433465
0.00562854
0.00571982
0.00543932
0.00632467
0.010629
0.0189323
0.0288723
0.0389735
0.0481706
0.0558536
0.0616625
0.0654612
0.0674602
0.0683897
0.0693429
0.0712986
0.0746616
0.079107
0.083962
0.0886437
0.0928249
0.0963913
0.0993491
0.101754
0.10367
0.105138
0.105472
0.132072
0.129368
0.124548
0.115441
0.0999311
0.0736204
0.0149903
0
0
0
0.00195909
0.0204115
0.0343594
0.0476081
0.0590833
0.0690222
0.078478
0.0908425
0.103442
0.114335
0.122919
0.129069
0.132877
0.134417
0.133659
0.13055
0.125284
0.118661
0.112158
0.107328
0.104893
0.104496
0.105281
0.106504
0.10774
0.108812
0.109679
0.110351
0.110841
0.110945
0.145626
0.145354
0.145957
0.144853
0.138948
0.121082
0.0884795
0.0868837
0.0901294
0.0922117
0.101474
0.117897
0.12548
0.137442
0.150917
0.164994
0.180499
0.198572
0.212113
0.220143
0.223381
0.22294
0.219764
0.214495
0.20743
0.19852
0.187536
0.174511
0.160335
0.146879
0.136091
0.128751
0.124301
0.121678
0.120025
0.118858
0.117955
0.117224
0.116629
0.116479
0.15594
0.158764
0.166947
0.179105
0.194267
0.212954
0.263258
0.309637
0.3215
0.328535
0.330108
0.320856
0.312504
0.309552
0.312639
0.320777
0.332546
0.342555
0.346028
0.343405
0.335903
0.324961
0.31183
0.297419
0.282224
0.266287
0.249235
0.230543
0.210176
0.189314
0.170288
0.15518
0.144469
0.137232
0.132243
0.128611
0.12584
0.123678
0.122003
0.121602
0.162848
0.167417
0.180286
0.201962
0.232789
0.273793
0.332504
0.389021
0.425281
0.448792
0.46294
0.47034
0.475228
0.479597
0.484027
0.487937
0.489315
0.484878
0.474854
0.459954
0.441287
0.420073
0.397432
0.374259
0.351121
0.328167
0.305071
0.281132
0.255719
0.229117
0.203201
0.180756
0.163555
0.151381
0.142901
0.13682
0.132293
0.128846
0.126234
0.125619
0.166253
0.170754
0.183797
0.207779
0.244647
0.295448
0.359356
0.423512
0.475162
0.512974
0.539022
0.556583
0.568939
0.577927
0.583736
0.585578
0.582176
0.573175
0.558715
0.539418
0.516227
0.49024
0.462551
0.434125
0.405677
0.377559
0.349652
0.32136
0.291878
0.260927
0.229754
0.201272
0.178318
0.161655
0.150107
0.142028
0.136189
0.131855
0.128631
0.127881
0.166253
0.170754
0.183797
0.207779
0.244647
0.295448
0.359356
0.423512
0.475162
0.512974
0.539022
0.556583
0.568939
0.577927
0.583736
0.585578
0.582176
0.573175
0.558715
0.539418
0.516227
0.49024
0.462551
0.434125
0.405677
0.377559
0.349652
0.32136
0.291878
0.260927
0.229754
0.201272
0.178318
0.161655
0.150107
0.142028
0.136189
0.131855
0.128631
0.127881
0.162848
0.167417
0.180286
0.201962
0.232789
0.273793
0.332504
0.389021
0.425281
0.448792
0.46294
0.47034
0.475228
0.479597
0.484027
0.487937
0.489315
0.484878
0.474854
0.459954
0.441287
0.420073
0.397432
0.374259
0.351121
0.328167
0.305071
0.281132
0.255719
0.229117
0.203201
0.180756
0.163555
0.151381
0.142901
0.13682
0.132293
0.128846
0.126234
0.125619
0.15594
0.158764
0.166947
0.179105
0.194267
0.212954
0.263258
0.309637
0.3215
0.328535
0.330108
0.320856
0.312504
0.309552
0.312639
0.320777
0.332546
0.342555
0.346028
0.343405
0.335903
0.324961
0.31183
0.297419
0.282224
0.266287
0.249235
0.230543
0.210176
0.189314
0.170288
0.15518
0.144469
0.137232
0.132243
0.128611
0.12584
0.123678
0.122003
0.121602
0.145626
0.145354
0.145957
0.144853
0.138948
0.121082
0.0884795
0.0868837
0.0901294
0.0922117
0.101474
0.117897
0.12548
0.137442
0.150917
0.164994
0.180499
0.198572
0.212113
0.220143
0.223381
0.22294
0.219764
0.214495
0.20743
0.19852
0.187536
0.174511
0.160335
0.146879
0.136091
0.128751
0.124301
0.121678
0.120025
0.118858
0.117955
0.117224
0.116629
0.116479
0.132072
0.129368
0.124548
0.115441
0.0999311
0.0736204
0.0149903
0
0
0
0.00195909
0.0204115
0.0343594
0.0476081
0.0590833
0.0690222
0.078478
0.0908425
0.103442
0.114335
0.122919
0.129069
0.132877
0.134417
0.133659
0.13055
0.125284
0.118661
0.112158
0.107328
0.104893
0.104496
0.105281
0.106504
0.10774
0.108812
0.109679
0.110351
0.110841
0.110945
0.115312
0.111525
0.104513
0.092843
0.07584
0.0524916
0.0104287
0
0
0
-0.000791733
0.00132261
0.00433465
0.00562854
0.00571982
0.00543932
0.00632467
0.010629
0.0189323
0.0288723
0.0389735
0.0481706
0.0558536
0.0616625
0.0654612
0.0674602
0.0683897
0.0693429
0.0712986
0.0746616
0.079107
0.083962
0.0886437
0.0928249
0.0963913
0.0993491
0.101754
0.10367
0.105138
0.105472
0.0953148
0.0915278
0.0845752
0.0733611
0.0578397
0.0381999
0.0072734
0
0
0
-0.00292313
-0.0115494
-0.0190706
-0.0279805
-0.0368356
-0.0445524
-0.0497164
-0.0511355
-0.0470064
-0.039521
-0.03008
-0.0200289
-0.0102346
-0.00116247
0.00710499
0.0148875
0.0227852
0.0312992
0.0404481
0.0498261
0.058867
0.0671405
0.0744233
0.080663
0.0859079
0.0902513
0.093798
0.0966414
0.0988334
0.0993314
0.0720115
0.0689336
0.0633611
0.0541434
0.041463
0.0261035
0.00465917
0
0
0
-0.00434293
-0.021106
-0.0364023
-0.0525821
-0.0679202
-0.0811859
-0.0910907
-0.0964538
-0.0959961
-0.0913839
-0.083543
-0.0735426
-0.0621951
-0.0499986
-0.0371746
-0.023795
-0.00998887
0.0039674
0.0174568
0.0299719
0.0412495
0.0511253
0.0595868
0.0667164
0.0726404
0.0775004
0.0814352
0.0845645
0.086951
0.0874719
0.0450657
0.0427383
0.03916
0.0328293
0.0241646
0.0142974
0.00224321
0
0
0
-0.00410054
-0.0229401
-0.0408638
-0.0597401
-0.0778182
-0.093903
-0.106651
-0.115063
-0.118834
-0.118093
-0.113098
-0.104508
-0.0930765
-0.0795365
-0.064593
-0.0489525
-0.0333272
-0.0183159
-0.0045271
0.00774659
0.0183517
0.0273139
0.0347655
0.0408718
0.0458116
0.0497605
0.0528795
0.0553035
0.0571079
0.0574566
0.0119792
0.00785734
0.00751172
0.00643292
0.0047002
0.00258304
0
0
0
0
0
-0.00537069
-0.010117
-0.01494
-0.019546
-0.0236746
-0.0269851
-0.0293333
-0.0306565
-0.0308798
-0.0300216
-0.0281943
-0.0255483
-0.0222555
-0.0185131
-0.0145429
-0.0105701
-0.00678589
-0.00332633
-0.000216486
0.00242862
0.00464269
0.0064762
0.00797373
0.00918146
0.0101439
0.0109008
0.0114826
0.0118935
0.0118935

SCALARS  v float
LOOKUP_TABLE default 
0
0.000407609
0.000851623
0.00121441
0.00134179
0.000999147
0
0
0
0
0
0.000802607
0.000453884
-0.000534835
-0.00173122
-0.00296384
-0.00416045
-0.00555172
-0.00703318
-0.00834346
-0.00920895
-0.00947658
-0.00914706
-0.0083398
-0.00723496
-0.00601712
-0.00483563
-0.00378432
-0.00290168
-0.00219923
-0.00165955
-0.00124673
-0.000934663
-0.000700525
-0.000525459
-0.000394713
-0.000297448
-0.000227095
-0.000184074
-0.000184074
0.00115278
0.00552303
0.00937822
0.0122938
0.0135443
0.0114083
0.00271245
0
0
0
0.00444738
0.0175971
0.0183518
0.0144338
0.00873968
0.00196836
-0.00572388
-0.0143853
-0.0238571
-0.0329309
-0.0400597
-0.0443478
-0.0456235
-0.0442407
-0.040859
-0.0362452
-0.0311153
-0.0260514
-0.0213598
-0.0172275
-0.0137403
-0.0108554
-0.0085043
-0.00661294
-0.00510734
-0.00391966
-0.00299261
-0.00228616
-0.001801
-0.00170145
0.00275169
0.0133178
0.0224873
0.0296336
0.0335034
0.0300437
0.00736719
0
0
0
0.0103281
0.0431708
0.0486847
0.0450483
0.0373887
0.0264124
0.0121014
-0.00488493
-0.0233607
-0.0410639
-0.055547
-0.0655826
-0.0709716
-0.0721159
-0.0697607
-0.064849
-0.058297
-0.0510046
-0.0436781
-0.0367492
-0.0304502
-0.0249143
-0.0201606
-0.0161506
-0.0128162
-0.0100765
-0.00785146
-0.00608125
-0.00479846
-0.00452014
0.00470585
0.0229726
0.0390156
0.0520616
0.0603622
0.0568778
0.0141291
0
0
0
0.0147725
0.0628418
0.0735607
0.0708687
0.0617691
0.0469846
0.0263442
0.00074306
-0.0268846
-0.0520639
-0.0720503
-0.0860121
-0.0941451
-0.0970716
-0.0955722
-0.0905833
-0.0831395
-0.0743073
-0.0649044
-0.0556184
-0.0469023
-0.0390167
-0.0320763
-0.0260933
-0.0210165
-0.0167602
-0.0132275
-0.0103434
-0.00818771
-0.00771875
0.00680655
0.0334155
0.0571771
0.0774442
0.0921432
0.0907598
0.0228697
0
0
0
0.016216
0.0697771
0.0857742
0.0853136
0.0764888
0.0598761
0.0344469
0.00107253
-0.0341419
-0.0641675
-0.087021
-0.102715
-0.111905
-0.115531
-0.114505
-0.109693
-0.101959
-0.0922848
-0.0815762
-0.0706319
-0.0600802
-0.0503452
-0.0416567
-0.0340906
-0.0276185
-0.0221513
-0.0175748
-0.0137956
-0.0109253
-0.0102981
0.00855842
0.0423195
0.0735788
0.102206
0.126366
0.132038
0.0340448
0
0
0
0.0142501
0.0610248
0.0797028
0.0821778
0.0753951
0.0593246
0.0318441
-0.00587938
-0.0437196
-0.0743787
-0.0969044
-0.112074
-0.120953