# vtk DataFile Version 3.0
vtk output194
ASCII
DATASET STRUCTURED_GRID
DIMENSIONS 36 26 1
POINTS 936 float
0 0 0
0.171429 0 0
0.342857 0 0
0.514286 0 0
0.685714 0 0
0.857143 0 0
1.02857 0 0
1.2 0 0
1.37143 0 0
1.54286 0 0
1.71429 0 0
1.88571 0 0
2.05714 0 0
2.22857 0 0
2.4 0 0
2.57143 0 0
2.74286 0 0
2.91429 0 0
3.08571 0 0
3.25714 0 0
3.42857 0 0
3.6 0 0
3.77143 0 0
3.94286 0 0
4.11429 0 0
4.28571 0 0
4.45714 0 0
4.62857 0 0
4.8 0 0
4.97143 0 0
5.14286 0 0
5.31429 0 0
5.48571 0 0
5.65714 0 0
5.82857 0 0
6 0 0
0 0.2 0
0.171429 0.2 0
0.342857 0.2 0
0.514286 0.2 0
0.685714 0.2 0
0.857143 0.2 0
1.02857 0.2 0
1.2 0.2 0
1.37143 0.2 0
1.54286 0.2 0
1.71429 0.2 0
1.88571 0.2 0
2.05714 0.2 0
2.22857 0.2 0
2.4 0.2 0
2.57143 0.2 0
2.74286 0.2 0
2.91429 0.2 0
3.08571 0.2 0
3.25714 0.2 0
3.42857 0.2 0
3.6 0.2 0
3.77143 0.2 0
3.94286 0.2 0
4.11429 0.2 0
4.28571 0.2 0
4.45714 0.2 0
4.62857 0.2 0
4.8 0.2 0
4.97143 0.2 0
5.14286 0.2 0
5.31429 0.2 0
5.48571 0.2 0
5.65714 0.2 0
5.82857 0.2 0
6 0.2 0
0 0.4 0
0.171429 0.4 0
0.342857 0.4 0
0.514286 0.4 0
0.685714 0.4 0
0.857143 0.4 0
1.02857 0.4 0
1.2 0.4 0
1.37143 0.4 0
1.54286 0.4 0
1.71429 0.4 0
1.88571 0.4 0
2.05714 0.4 0
2.22857 0.4 0
2.4 0.4 0
2.57143 0.4 0
2.74286 0.4 0
2.91429 0.4 0
3.08571 0.4 0
3.25714 0.4 0
3.42857 0.4 0
3.6 0.4 0
3.77143 0.4 0
3.94286 0.4 0
4.11429 0.4 0
4.28571 0.4 0
4.45714 0.4 0
4.62857 0.4 0
4.8 0.4 0
4.97143 0.4 0
5.14286 0.4 0
5.31429 0.4 0
5.48571 0.4 0
5.65714 0.4 0
5.82857 0.4 0
6 0.4 0
0 0.6 0
0.171429 0.6 0
0.342857 0.6 0
0.514286 0.6 0
0.685714 0.6 0
0.857143 0.6 0
1.02857 0.6 0
1.2 0.6 0
1.37143 0.6 0
1.54286 0.6 0
1.71429 0.6 0
1.88571 0.6 0
2.05714 0.6 0
2.22857 0.6 0
2.4 0.6 0
2.57143 0.6 0
2.74286 0.6 0
2.91429 0.6 0
3.08571 0.6 0
3.25714 0.6 0
3.42857 0.6 0
3.6 0.6 0
3.77143 0.6 0
3.94286 0.6 0
4.11429 0.6 0
4.28571 0.6 0
4.45714 0.6 0
4.62857 0.6 0
4.8 0.6 0
4.97143 0.6 0
5.14286 0.6 0
5.31429 0.6 0
5.48571 0.6 0
5.65714 0.6 0
5.82857 0.6 0
6 0.6 0
0 0.8 0
0.171429 0.8 0
0.342857 0.8 0
0.514286 0.8 0
0.685714 0.8 0
0.857143 0.8 0
1.02857 0.8 0
1.2 0.8 0
1.37143 0.8 0
1.54286 0.8 0
1.71429 0.8 0
1.88571 0.8 0
2.05714 0.8 0
2.22857 0.8 0
2.4 0.8 0
2.57143 0.8 0
2.74286 0.8 0
2.91429 0.8 0
3.08571 0.8 0
3.25714 0.8 0
3.42857 0.8 0
3.6 0.8 0
3.77143 0.8 0
3.94286 0.8 0
4.11429 0.8 0
4.28571 0.8 0
4.45714 0.8 0
4.62857 0.8 0
4.8 0.8 0
4.97143 0.8 0
5.14286 0.8 0
5.31429 0.8 0
5.48571 0.8 0
5.65714 0.8 0
5.82857 0.8 0
6 0.8 0
0 1 0
0.171429 1 0
0.342857 1 0
0.514286 1 0
0.685714 1 0
0.857143 1 0
1.02857 1 0
1.2 1 0
1.37143 1 0
1.54286 1 0
1.71429 1 0
1.88571 1 0
2.05714 1 0
2.22857 1 0
2.4 1 0
2.57143 1 0
2.74286 1 0
2.91429 1 0
3.08571 1 0
3.25714 1 0
3.42857 1 0
3.6 1 0
3.77143 1 0
3.94286 1 0
4.11429 1 0
4.28571 1 0
4.45714 1 0
4.62857 1 0
4.8 1 0
4.97143 1 0
5.14286 1 0
5.31429 1 0
5.48571 1 0
5.65714 1 0
5.82857 1 0
6 1 0
0 1.2 0
0.171429 1.2 0
0.342857 1.2 0
0.514286 1.2 0
0.685714 1.2 0
0.857143 1.2 0
1.02857 1.2 0
1.2 1.2 0
1.37143 1.2 0
1.54286 1.2 0
1.71429 1.2 0
1.88571 1.2 0
2.05714 1.2 0
2.22857 1.2 0
2.4 1.2 0
2.57143 1.2 0
2.74286 1.2 0
2.91429 1.2 0
3.08571 1.2 0
3.25714 1.2 0
3.42857 1.2 0
3.6 1.2 0
3.77143 1.2 0
3.94286 1.2 0
4.11429 1.2 0
4.28571 1.2 0
4.45714 1.2 0
4.62857 1.2 0
4.8 1.2 0
4.97143 1.2 0
5.14286 1.2 0
5.31429 1.2 0
5.48571 1.2 0
5.65714 1.2 0
5.82857 1.2 0
6 1.2 0
0 1.4 0
0.171429 1.4 0
0.342857 1.4 0
0.514286 1.4 0
0.685714 1.4 0
0.857143 1.4 0
1.02857 1.4 0
1.2 1.4 0
1.37143 1.4 0
1.54286 1.4 0
1.71429 1.4 0
1.88571 1.4 0
2.05714 1.4 0
2.22857 1.4 0
2.4 1.4 0
2.57143 1.4 0
2.74286 1.4 0
2.91429 1.4 0
3.08571 1.4 0
3.25714 1.4 0
3.42857 1.4 0
3.6 1.4 0
3.77143 1.4 0
3.94286 1.4 0
4.11429 1.4 0
4.28571 1.4 0
4.45714 1.4 0
4.62857 1.4 0
4.8 1.4 0
4.97143 1.4 0
5.14286 1.4 0
5.31429 1.4 0
5.48571 1.4 0
5.65714 1.4 0
5.82857 1.4 0
6 1.4 0
0 1.6 0
0.171429 1.6 0
0.342857 1.6 0
0.514286 1.6 0
0.685714 1.6 0
0.857143 1.6 0
1.02857 1.6 0
1.2 1.6 0
1.37143 1.6 0
1.54286 1.6 0
1.71429 1.6 0
1.88571 1.6 0
2.05714 1.6 0
2.22857 1.6 0
2.4 1.6 0
2.57143 1.6 0
2.74286 1.6 0
2.91429 1.6 0
3.08571 1.6 0
3.25714 1.6 0
3.42857 1.6 0
3.6 1.6 0
3.77143 1.6 0
3.94286 1.6 0
4.11429 1.6 0
4.28571 1.6 0
4.45714 1.6 0
4.62857 1.6 0
4.8 1.6 0
4.97143 1.6 0
5.14286 1.6 0
5.31429 1.6 0
5.48571 1.6 0
5.65714 1.6 0
5.82857 1.6 0
6 1.6 0
0 1.8 0
0.171429 1.8 0
0.342857 1.8 0
0.514286 1.8 0
0.685714 1.8 0
0.857143 1.8 0
1.02857 1.8 0
1.2 1.8 0
1.37143 1.8 0
1.54286 1.8 0
1.71429 1.8 0
1.88571 1.8 0
2.05714 1.8 0
2.22857 1.8 0
2.4 1.8 0
2.57143 1.8 0
2.74286 1.8 0
2.91429 1.8 0
3.08571 1.8 0
3.25714 1.8 0
3.42857 1.8 0
3.6 1.8 0
3.77143 1.8 0
3.94286 1.8 0
4.11429 1.8 0
4.28571 1.8 0
4.45714 1.8 0
4.62857 1.8 0
4.8 1.8 0
4.97143 1.8 0
5.14286 1.8 0
5.31429 1.8 0
5.48571 1.8 0
5.65714 1.8 0
5.82857 1.8 0
6 1.8 0
0 2 0
0.171429 2 0
0.342857 2 0
0.514286 2 0
0.685714 2 0
0.857143 2 0
1.02857 2 0
1.2 2 0
1.37143 2 0
1.54286 2 0
1.71429 2 0
1.88571 2 0
2.05714 2 0
2.22857 2 0
2.4 2 0
2.57143 2 0
2.74286 2 0
2.91429 2 0
3.08571 2 0
3.25714 2 0
3.42857 2 0
3.6 2 0
3.77143 2 0
3.94286 2 0
4.11429 2 0
4.28571 2 0
4.45714 2 0
4.62857 2 0
4.8 2 0
4.97143 2 0
5.14286 2 0
5.31429 2 0
5.48571 2 0
5.65714 2 0
5.82857 2 0
6 2 0
0 2.2 0
0.171429 2.2 0
0.342857 2.2 0
0.514286 2.2 0
0.685714 2.2 0
0.857143 2.2 0
1.02857 2.2 0
1.2 2.2 0
1.37143 2.2 0
1.54286 2.2 0
1.71429 2.2 0
1.88571 2.2 0
2.05714 2.2 0
2.22857 2.2 0
2.4 2.2 0
2.57143 2.2 0
2.74286 2.2 0
2.91429 2.2 0
3.08571 2.2 0
3.25714 2.2 0
3.42857 2.2 0
3.6 2.2 0
3.77143 2.2 0
3.94286 2.2 0
4.11429 2.2 0
4.28571 2.2 0
4.45714 2.2 0
4.62857 2.2 0
4.8 2.2 0
4.97143 2.2 0
5.14286 2.2 0
5.31429 2.2 0
5.48571 2.2 0
5.65714 2.2 0
5.82857 2.2 0
6 2.2 0
0 2.4 0
0.171429 2.4 0
0.342857 2.4 0
0.514286 2.4 0
0.685714 2.4 0
0.857143 2.4 0
1.02857 2.4 0
1.2 2.4 0
1.37143 2.4 0
1.54286 2.4 0
1.71429 2.4 0
1.88571 2.4 0
2.05714 2.4 0
2.22857 2.4 0
2.4 2.4 0
2.57143 2.4 0
2.74286 2.4 0
2.91429 2.4 0
3.08571 2.4 0
3.25714 2.4 0
3.42857 2.4 0
3.6 2.4 0
3.77143 2.4 0
3.94286 2.4 0
4.11429 2.4 0
4.28571 2.4 0
4.45714 2.4 0
4.62857 2.4 0
4.8 2.4 0
4.97143 2.4 0
5.14286 2.4 0
5.31429 2.4 0
5.48571 2.4 0
5.65714 2.4 0
5.82857 2.4 0
6 2.4 0
0 2.6 0
0.171429 2.6 0
0.342857 2.6 0
0.514286 2.6 0
0.685714 2.6 0
0.857143 2.6 0
1.02857 2.6 0
1.2 2.6 0
1.37143 2.6 0
1.54286 2.6 0
1.71429 2.6 0
1.88571 2.6 0
2.05714 2.6 0
2.22857 2.6 0
2.4 2.6 0
2.57143 2.6 0
2.74286 2.6 0
2.91429 2.6 0
3.08571 2.6 0
3.25714 2.6 0
3.42857 2.6 0
3.6 2.6 0
3.77143 2.6 0
3.94286 2.6 0
4.11429 2.6 0
4.28571 2.6 0
4.45714 2.6 0
4.62857 2.6 0
4.8 2.6 0
4.97143 2.6 0
5.14286 2.6 0
5.31429 2.6 0
5.48571 2.6 0
5.65714 2.6 0
5.82857 2.6 0
6 2.6 0
0 2.8 0
0.171429 2.8 0
0.342857 2.8 0
0.514286 2.8 0
0.685714 2.8 0
0.857143 2.8 0
1.02857 2.8 0
1.2 2.8 0
1.37143 2.8 0
1.54286 2.8 0
1.71429 2.8 0
1.88571 2.8 0
2.05714 2.8 0
2.22857 2.8 0
2.4 2.8 0
2.57143 2.8 0
2.74286 2.8 0
2.91429 2.8 0
3.08571 2.8 0
3.25714 2.8 0
3.42857 2.8 0
3.6 2.8 0
3.77143 2.8 0
3.94286 2.8 0
4.11429 2.8 0
4.28571 2.8 0
4.45714 2.8 0
4.62857 2.8 0
4.8 2.8 0
4.97143 2.8 0
5.14286 2.8 0
5.31429 2.8 0
5.48571 2.8 0
5.65714 2.8 0
5.82857 2.8 0
6 2.8 0
0 3 0
0.171429 3 0
0.342857 3 0
0.514286 3 0
0.685714 3 0
0.857143 3 0
1.02857 3 0
1.2 3 0
1.37143 3 0
1.54286 3 0
1.71429 3 0
1.88571 3 0
2.05714 3 0
2.22857 3 0
2.4 3 0
2.57143 3 0
2.74286 3 0
2.91429 3 0
3.08571 3 0
3.25714 3 0
3.42857 3 0
3.6 3 0
3.77143 3 0
3.94286 3 0
4.11429 3 0
4.28571 3 0
4.45714 3 0
4.62857 3 0
4.8 3 0
4.97143 3 0
5.14286 3 0
5.31429 3 0
5.48571 3 0
5.65714 3 0
5.82857 3 0
6 3 0
0 3.2 0
0.171429 3.2 0
0.342857 3.2 0
0.514286 3.2 0
0.685714 3.2 0
0.857143 3.2 0
1.02857 3.2 0
1.2 3.2 0
1.37143 3.2 0
1.54286 3.2 0
1.71429 3.2 0
1.88571 3.2 0
2.05714 3.2 0
2.22857 3.2 0
2.4 3.2 0
2.57143 3.2 0
2.74286 3.2 0
2.91429 3.2 0
3.08571 3.2 0
3.25714 3.2 0
3.42857 3.2 0
3.6 3.2 0
3.77143 3.2 0
3.94286 3.2 0
4.11429 3.2 0
4.28571 3.2 0
4.45714 3.2 0
4.62857 3.2 0
4.8 3.2 0
4.97143 3.2 0
5.14286 3.2 0
5.31429 3.2 0
5.48571 3.2 0
5.65714 3.2 0
5.82857 3.2 0
6 3.2 0
0 3.4 0
0.171429 3.4 0
0.342857 3.4 0
0.514286 3.4 0
0.685714 3.4 0
0.857143 3.4 0
1.02857 3.4 0
1.2 3.4 0
1.37143 3.4 0
1.54286 3.4 0
1.71429 3.4 0
1.88571 3.4 0
2.05714 3.4 0
2.22857 3.4 0
2.4 3.4 0
2.57143 3.4 0
2.74286 3.4 0
2.91429 3.4 0
3.08571 3.4 0
3.25714 3.4 0
3.42857 3.4 0
3.6 3.4 0
3.77143 3.4 0
3.94286 3.4 0
4.11429 3.4 0
4.28571 3.4 0
4.45714 3.4 0
4.62857 3.4 0
4.8 3.4 0
4.97143 3.4 0
5.14286 3.4 0
5.31429 3.4 0
5.48571 3.4 0
5.65714 3.4 0
5.82857 3.4 0
6 3.4 0
0 3.6 0
0.171429 3.6 0
0.342857 3.6 0
0.514286 3.6 0
0.685714 3.6 0
0.857143 3.6 0
1.02857 3.6 0
1.2 3.6 0
1.37143 3.6 0
1.54286 3.6 0
1.71429 3.6 0
1.88571 3.6 0
2.05714 3.6 0
2.22857 3.6 0
2.4 3.6 0
2.57143 3.6 0
2.74286 3.6 0
2.91429 3.6 0
3.08571 3.6 0
3.25714 3.6 0
3.42857 3.6 0
3.6 3.6 0
3.77143 3.6 0
3.94286 3.6 0
4.11429 3.6 0
4.28571 3.6 0
4.45714 3.6 0
4.62857 3.6 0
4.8 3.6 0
4.97143 3.6 0
5.14286 3.6 0
5.31429 3.6 0
5.48571 3.6 0
5.65714 3.6 0
5.82857 3.6 0
6 3.6 0
0 3.8 0
0.171429 3.8 0
0.342857 3.8 0
0.514286 3.8 0
0.685714 3.8 0
0.857143 3.8 0
1.02857 3.8 0
1.2 3.8 0
1.37143 3.8 0
1.54286 3.8 0
1.71429 3.8 0
1.88571 3.8 0
2.05714 3.8 0
2.22857 3.8 0
2.4 3.8 0
2.57143 3.8 0
2.74286 3.8 0
2.91429 3.8 0
3.08571 3.8 0
3.25714 3.8 0
3.42857 3.8 0
3.6 3.8 0
3.77143 3.8 0
3.94286 3.8 0
4.11429 3.8 0
4.28571 3.8 0
4.45714 3.8 0
4.62857 3.8 0
4.8 3.8 0
4.97143 3.8 0
5.14286 3.8 0
5.31429 3.8 0
5.48571 3.8 0
5.65714 3.8 0
5.82857 3.8 0
6 3.8 0
0 4 0
0.171429 4 0
0.342857 4 0
0.514286 4 0
0.685714 4 0
0.857143 4 0
1.02857 4 0
1.2 4 0
1.37143 4 0
1.54286 4 0
1.71429 4 0
1.88571 4 0
2.05714 4 0
2.22857 4 0
2.4 4 0
2.57143 4 0
2.74286 4 0
2.91429 4 0
3.08571 4 0
3.25714 4 0
3.42857 4 0
3.6 4 0
3.77143 4 0
3.94286 4 0
4.11429 4 0
4.28571 4 0
4.45714 4 0
4.62857 4 0
4.8 4 0
4.97143 4 0
5.14286 4 0
5.31429 4 0
5.48571 4 0
5.65714 4 0
5.82857 4 0
6 4 0
0 4.2 0
0.171429 4.2 0
0.342857 4.2 0
0.514286 4.2 0
0.685714 4.2 0
0.857143 4.2 0
1.02857 4.2 0
1.2 4.2 0
1.37143 4.2 0
1.54286 4.2 0
1.71429 4.2 0
1.88571 4.2 0
2.05714 4.2 0
2.22857 4.2 0
2.4 4.2 0
2.57143 4.2 0
2.74286 4.2 0
2.91429 4.2 0
3.08571 4.2 0
3.25714 4.2 0
3.42857 4.2 0
3.6 4.2 0
3.77143 4.2 0
3.94286 4.2 0
4.11429 4.2 0
4.28571 4.2 0
4.45714 4.2 0
4.62857 4.2 0
4.8 4.2 0
4.97143 4.2 0
5.14286 4.2 0
5.31429 4.2 0
5.48571 4.2 0
5.65714 4.2 0
5.82857 4.2 0
6 4.2 0
0 4.4 0
0.171429 4.4 0
0.342857 4.4 0
0.514286 4.4 0
0.685714 4.4 0
0.857143 4.4 0
1.02857 4.4 0
1.2 4.4 0
1.37143 4.4 0
1.54286 4.4 0
1.71429 4.4 0
1.88571 4.4 0
2.05714 4.4 0
2.22857 4.4 0
2.4 4.4 0
2.57143 4.4 0
2.74286 4.4 0
2.91429 4.4 0
3.08571 4.4 0
3.25714 4.4 0
3.42857 4.4 0
3.6 4.4 0
3.77143 4.4 0
3.94286 4.4 0
4.11429 4.4 0
4.28571 4.4 0
4.45714 4.4 0
4.62857 4.4 0
4.8 4.4 0
4.97143 4.4 0
5.14286 4.4 0
5.31429 4.4 0
5.48571 4.4 0
5.65714 4.4 0
5.82857 4.4 0
6 4.4 0
0 4.6 0
0.171429 4.6 0
0.342857 4.6 0
0.514286 4.6 0
0.685714 4.6 0
0.857143 4.6 0
1.02857 4.6 0
1.2 4.6 0
1.37143 4.6 0
1.54286 4.6 0
1.71429 4.6 0
1.88571 4.6 0
2.05714 4.6 0
2.22857 4.6 0
2.4 4.6 0
2.57143 4.6 0
2.74286 4.6 0
2.91429 4.6 0
3.08571 4.6 0
3.25714 4.6 0
3.42857 4.6 0
3.6 4.6 0
3.77143 4.6 0
3.94286 4.6 0
4.11429 4.6 0
4.28571 4.6 0
4.45714 4.6 0
4.62857 4.6 0
4.8 4.6 0
4.97143 4.6 0
5.14286 4.6 0
5.31429 4.6 0
5.48571 4.6 0
5.65714 4.6 0
5.82857 4.6 0
6 4.6 0
0 4.8 0
0.171429 4.8 0
0.342857 4.8 0
0.514286 4.8 0
0.685714 4.8 0
0.857143 4.8 0
1.02857 4.8 0
1.2 4.8 0
1.37143 4.8 0
1.54286 4.8 0
1.71429 4.8 0
1.88571 4.8 0
2.05714 4.8 0
2.22857 4.8 0
2.4 4.8 0
2.57143 4.8 0
2.74286 4.8 0
2.91429 4.8 0
3.08571 4.8 0
3.25714 4.8 0
3.42857 4.8 0
3.6 4.8 0
3.77143 4.8 0
3.94286 4.8 0
4.11429 4.8 0
4.28571 4.8 0
4.45714 4.8 0
4.62857 4.8 0
4.8 4.8 0
4.97143 4.8 0
5.14286 4.8 0
5.31429 4.8 0
5.48571 4.8 0
5.65714 4.8 0
5.82857 4.8 0
6 4.8 0
0 5 0
0.171429 5 0
0.342857 5 0
0.514286 5 0
0.685714 5 0
0.857143 5 0
1.02857 5 0
1.2 5 0
1.37143 5 0
1.54286 5 0
1.71429 5 0
1.88571 5 0
2.05714 5 0
2.22857 5 0
2.4 5 0
2.57143 5 0
2.74286 5 0
2.91429 5 0
3.08571 5 0
3.25714 5 0
3.42857 5 0
3.6 5 0
3.77143 5 0
3.94286 5 0
4.11429 5 0
4.28571 5 0
4.45714 5 0
4.62857 5 0
4.8 5 0
4.97143 5 0
5.14286 5 0
5.31429 5 0
5.48571 5 0
5.65714 5 0
5.82857 5 0
6 5 0

CELL_DATA 875
SCALARS phi float
LOOKUP_TABLE default 
4.711
4.711
4.711
4.711
4.711
4.711
4.711
4.711
4.711
4.711
4.711
4.711
4.711
4.711
4.711
4.711
4.711
4.711
4.711
4.711
4.711
4.711
4.711
4.711
4.711
4.711
4.711
4.711
4.711
4.711
4.711
4.711
4.711
4.711
4.711
4.711
4.711
4.711
4.711
4.711
4.711
4.711
4.711
4.711
4.711
4.711
4.711
4.711
4.711
4.711
4.711
4.711
4.711
4.711
4.711
4.711
4.711
4.711
4.711
4.711
4.711
4.711
4.711
4.711
4.711
4.711
4.711
4.711
4.711
4.711
4.711
4.711
4.711
4.711
4.711
4.711
4.711
4.711
4.711
4.711
4.711
4.711
4.711
4.711
4.711
4.711
4.711
4.711
4.711
4.711
4.711
4.711
4.711
4.711
4.711
4.711
4.711
4.711
4.711
4.711
4.711
4.711
4.711
4.711
4.711
4.711
4.711
4.711
4.711
4.711
4.711
4.711
4.711
4.711
4.711
4.711
4.711
4.711
4.711
4.711
4.711
4.711
4.711
4.711
4.711
4.711
4.711
4.711
4.711
4.711
4.711
4.711
4.711
4.711
4.711
4.711
4.711
4.711
4.711
4.711
4.711
4.711
4.711
4.711
4.711
4.711
4.711
4.711
4.711
4.711
4.711
4.711
4.711
4.711
4.711
4.711
4.711
4.711
4.711
4.711
4.711
4.711
4.711
4.711
4.711
4.711
4.711
4.711
4.711
4.711
4.711
4.711
4.711
4.711
4.711
4.711
4.711
4.711
4.711
4.711
4.711
4.711
4.711
4.711
4.711
4.711
4.711
4.711
4.711
4.711
4.711
4.711
4.711
4.711
4.711
4.711
4.711
4.711
4.711
4.711
4.711
4.711
4.711
4.711
4.711
4.711
4.711
4.711
4.711
4.711
4.711
4.711
4.711
4.711
4.711
4.711
4.711
4.711
4.711
4.711
4.711
4.711
4.711
4.711
4.711
4.711
4.711
4.711
4.711
4.711
4.711
4.711
4.711
4.711
4.711
4.711
4.711
4.711
4.711
4.711
4.711
4.711
4.711
4.711
4.711
4.711
4.711
4.711
4.711
4.711
4.711
4.711
4.711
4.711
4.711
4.711
4.711
4.711
4.711
4.711
4.711
4.711
4.711
4.711
4.711
4.711
4.711
4.711
4.711
4.711
4.711
4.711
4.711
4.711
4.711
4.711
4.711
4.711
4.711
4.711
4.711
4.711
4.711
4.711
4.711
4.711
4.711
4.711
4.711
4.711
4.711
4.711
4.711
4.711
4.711
4.711
4.711
4.711
4.711
4.711
4.711
4.711
4.711
4.711
4.711
4.711
4.711
4.711
4.711
4.711
4.711
4.711
4.711
4.711
4.711
4.711
4.711
4.711
4.711
4.711
4.711
4.711
4.711
4.711
4.711
4.711
4.711
4.711
4.711
4.711
4.711
4.711
4.711
4.711
4.711
4.711
4.711
4.711
4.711
4.711
4.711
4.711
4.711
4.711
4.711
4.711
4.711
4.711
4.711
4.711
4.711
4.711
4.711
4.711
4.711
4.711
4.711
4.711
4.711
4.711
4.711
4.711
4.711
4.711
4.711
4.711
4.711
4.711
4.711
4.711
4.711
4.711
4.711
4.711
4.711
4.711
4.711
4.711
4.711
4.711
4.711
4.711
4.711
4.711
4.711
4.711
4.711
4.711
4.711
4.711
4.711
4.711
4.711
4.711
4.711
4.711
4.711
4.711
4.711
4.711
4.711
4.711
4.711
4.711
4.711
4.711
4.711
4.711
4.711
4.711
4.711
4.711
4.711
4.711
4.711
4.711
4.711
4.711
4.711
4.711
4.711
4.711
4.711
4.711
4.711
4.711
4.711
4.711
4.711
4.711
4.711
4.711
4.711
4.711
4.711
4.711
4.711
4.711
4.711
4.711
4.711
4.711
4.711
4.711
4.711
4.711
4.711
4.711
4.711
4.711
4.711
4.711
4.711
4.711
4.711
4.711
4.711
4.711
4.711
4.711
4.711
4.711
4.711
4.711
4.711
4.711
4.711
4.711
4.711
4.711
4.711
4.711
4.711
4.711
4.711
4.711
4.711
4.711
4.711
4.711
4.711
4.711
4.711
4.711
4.711
4.711
4.711
4.711
4.711
4.711
4.711
4.711
4.711
4.711
4.711
4.711
4.711
4.711
4.711
4.711
4.711
4.711
4.711
4.711
4.711
4.711
4.711
4.711
4.711
4.711
4.711
4.711
4.711
4.711
4.711
4.711
4.711
4.711
4.711
4.711
4.711
4.711
4.711
4.711
4.711
4.711
4.711
4.711
4.711
4.711
4.711
4.711
4.711
4.711
4.711
4.711
4.711
4.711
4.711
4.711
4.711
4.711
4.711
4.711
4.711
4.711
4.711
4.711
4.711
4.711
4.711
4.711
4.711
4.711
4.711
4.711
4.711
4.711
4.711
4.711
4.711
4.711
4.711
4.711
4.711
4.711
4.711
4.711
4.711
4.711
4.711
4.711
4.711
4.711
4.711
4.711
4.711
4.711
4.711
4.711
4.711
4.711
4.711
4.711
4.711
4.711
4.711
4.711
4.711
4.711
4.711
4.711
4.711
4.711
4.711
4.711
4.711
4.711
4.711
4.711
4.711
4.711
4.711
4.711
4.711
4.711
4.711
4.711
4.711
4.711
4.711
4.711
4.711
4.711
4.711
4.711
4.711
4.711
4.711
4.711
4.711
4.711
4.711
4.711
4.711
4.711
4.711
4.711
4.711
4.711
4.711
4.711
4.711
4.711
4.711
4.711
4.711
4.711
4.711
4.711
4.711
4.711
4.711
4.711
4.711
4.711
4.711
4.711
4.711
4.711
4.711
4.711
4.711
4.711
4.711
4.711
4.711
4.711
4.711
4.711
4.711
4.711
4.711
4.711
4.711
4.711
4.711
4.711
4.711
4.711
4.711
4.711
4.711
4.711
4.711
4.711
4.711
4.711
4.711
4.711
4.711
4.711
4.711
4.711
4.711
4.711
4.711
4.711
4.711
4.711
4.711
4.711
4.711
4.711
4.711
4.711
4.711
4.711
4.711
4.711
4.711
4.711
4.711
4.711
4.711
4.711
4.711
4.711
4.711
4.711
4.711
4.711
4.711
4.711
4.711
4.711
4.711
4.711
4.711
4.711
4.711
4.711
4.711
4.711
4.711
4.711
4.711
4.711
4.711
4.711
4.711
4.711
4.711
4.711
4.711
4.711
4.711
4.711
4.711
4.711
4.711
4.711
4.711
4.711
4.711
4.711
4.711
4.711
4.711
4.711
4.711
4.711
4.711
4.711
4.711
4.711
4.711
4.711
4.711
4.711
4.711
4.711
4.711
4.711
4.711
4.711
4.711
4.711
4.711
4.711
4.711
4.711
4.711
4.711
4.711
4.711
4.711
4.711
4.711
4.711
4.711
4.711
4.711
4.711
4.711
4.711
4.711
4.711
4.711
4.711
4.711
4.711
4.711
4.711
4.711
4.711
4.711
4.711
4.711
4.711
4.711
4.711
4.711
4.711
4.711
4.711
4.711
4.711
4.711
4.711
4.711
4.711
4.711
4.711
4.711
4.711
4.711
4.711
4.711
4.711
4.711
4.711
4.711
4.711
4.711
4.711
4.711
4.711
4.711
4.711
4.711
4.711
4.711
4.711
4.711
4.711
4.711
4.711
4.711
4.711
4.711
4.711
4.711
4.711
4.711
4.711
4.711
4.711
4.711
4.711
4.711
4.711
4.711
4.711
4.711
4.711
4.711
4.711
4.711
4.711
4.711
4.711
4.711
4.711
4.711
4.711
4.711
4.711
4.711
4.711
4.711
4.711
4.711
4.711
4.711

SCALARS p float
LOOKUP_TABLE default 
46.438
46.438
46.2093
46.0871
46.0193
46.0193
0
0
0
-170.383
-170.383
-169.713
-167.718
-162.887
-154.204
-141.342
-125.618
-108.894
-92.7989
-78.2805
-65.1459
-54.0356
-44.88
-37.3132
-30.9658
-25.5129
-20.6921
-16.3052
-12.2089
-8.30309
-4.52053
-0.817774
2.83121
6.44098
10
46.438
46.438
46.2093
46.0871
46.0193
46.0193
0
0
0
-170.383
-170.383
-169.713
-167.718
-162.887
-154.204
-141.342
-125.618
-108.894
-92.7989
-78.2805
-65.1459
-54.0356
-44.88
-37.3132
-30.9658
-25.5129
-20.6921
-16.3052
-12.2089
-8.30309
-4.52053
-0.817774
2.83121
6.44098
10
46.1049
46.1049
45.9047
45.8446
45.8229
45.8229
0
0
0
-173.8
-173.8
-173.732
-172.745
-168.967
-160.286
-146.33
-129.33
-111.549
-94.7941
-79.2685
-65.7952
-54.552
-45.2992
-37.6661
-31.2717
-25.7821
-20.9295
-16.5126
-12.3868
-8.45175
-4.64014
-0.908166
2.77153
6.41629
10
45.0407
45.0407
44.8703
44.8869
44.932
44.932
0
0
0
-180.719
-180.719
-181.598
-182.055
-179.345
-169.894
-153.887
-134.999
-115.61
-97.2334
-80.8911
-66.9883
-55.4799
-46.0534
-38.3003
-31.8173
-26.2566
-21.3422
-16.8686
-12.689
-8.70231
-4.84089
-1.06026
2.66824
6.36405
10
42.7356
42.7356
42.5728
42.6339
42.7349
42.7349
0
0
0
-187.867
-187.867
-189.917
-192.056
-190.213
-178.957
-160.916
-139.787
-118.614
-99.1762
-82.2721
-68.0759
-56.3913
-46.8391
-38.9848
-32.4154
-26.7786
-21.7953
-17.258
-13.0185
-8.97491
-5.05903
-1.22571
2.55455
6.30224
10
38.7274
38.7274
38.4769
38.4027
38.4007
38.4007
0
0
0
-191.628
-191.628
-195.237
-199.354
-196.743
-182.32
-162.117
-139.935
-118.456
-99.1105
-82.4379
-68.4568
-56.9092
-47.4139
-39.5585
-32.9539
-27.2657
-22.2251
-17.6295
-13.3333
-9.23515
-5.26694
-1.38325
2.4459
6.24148
10
32.8012
32.8012
32.2149
31.4299
30.5695
30.5695
0
0
0
-190.635
-190.635
-196.324
-199.989
-190.916
-174.882
-155.032
-134.251
-114.445
-96.6079
-81.1031
-67.9298
-56.8851
-47.6679
-39.9416
-33.3764
-27.6784
-22.6034
-17.963
-13.6184
-9.47172
-5.45616
-1.5267
2.34664
6.18506
10
25.2836
25.2836
23.9329
21.0653
15.9592
15.9592
-59.8925
-85.7183
-110.761
-192.389
-192.389
-188.162
-182.684
-172.545
-158.428
-141.949
-124.735
-108.017
-92.5655
-78.7667
-66.7381
-56.4157
-47.6234
-40.1247
-33.6639
-27.9981
-22.9155
-18.2473
-13.8658
-9.67899
-5.62276
-1.65339
2.25864
6.13446
10
17.345
17.345
15.0832
9.15258
-5.33347
-44.7662
-59.8925
-85.7183
-110.761
-174.014
-167.455
-164.341
-159.642
-152.181
-141.75
-129.144
-115.436
-101.599
-88.3596
-76.1707
-65.2615
-55.6823
-47.358
-40.1348
-33.8211
-28.221
-23.1554
-18.4769
-14.0711
-9.85354
-5.76426
-1.76153
2.18322
6.09078
10
10.6331
10.6331
8.29754
2.42713
-9.63953
-31.5166
-59.8925
-85.7183
-110.761
-127.99
-136.767
-140.427
-139.967
-135.796
-128.466
-118.796
-107.711
-96.0737
-84.5796
-73.7135
-63.7659
-54.8571
-46.9787
-40.0349
-33.8826
-28.3648
-23.3311
-18.6548
-14.2348
-9.9948
-5.87967
-1.85012
2.12128
6.05482
10
5.93607
5.93607
4.01281
-0.637595
-9.38976
-23.734
-43.3403
-64.6174
-85.3846
-103.128
-115.617
-122.892
-125.414
-123.787
-118.75
-111.165
-101.924
-91.8487
-81.6213
-71.7412
-62.5312
-54.152
-46.6357
-39.9253
-33.9118
-28.467
-23.4636
-18.7917
-14.3616
-10.1044
-5.96917
-1.91868
2.07342
6.02711
10
3.31425
3.31425
1.82642
-1.71383
-8.20983
-18.8249
-34.0898
-52.4563
-71.6758
-89.3015
-103.126
-112.197
-116.466
-116.421
-112.818
-106.523
-98.4166
-89.3029
-79.8577
-70.5881
-61.835
-53.7817
-46.4855
-39.9131
-33.9774
-28.5693
-23.5762
-18.8994
-14.4569
-10.1842
-6.03272
-1.96657
2.04037
6.00819
10
2.55805
2.55805
1.35392
-1.52079
-6.86025
-15.9241
-29.6928
-47.2294
-66.2939
-84.2336
-98.7092
-108.505
-113.43
-113.963
-110.901
-105.108
-97.4449
-88.7023
-79.5474
-70.4886
-61.8745
-53.9017
-46.6416
-40.0753
-34.1277
-28.6988
-23.6824
-18.9834
-14.5215
-10.2328
-6.06841
-1.99193
2.02343
5.99858
10
3.31425
3.31425
1.82642
-1.71383
-8.20983
-18.8249
-34.0898
-52.4563
-71.6758
-89.3015
-103.126
-112.197
-116.466
-116.421
-112.818
-106.523
-98.4166
-89.3029
-79.8577
-70.5881
-61.835
-53.7817
-46.4855
-39.9131
-33.9774
-28.5693
-23.5762
-18.8994
-14.4569
-10.1842
-6.03272
-1.96657
2.04037
6.00819
10
5.93607
5.93607
4.01281
-0.637595
-9.38976
-23.734
-43.3403
-64.6174
-85.3846
-103.128
-115.617
-122.892
-125.414
-123.787
-118.75
-111.165
-101.924
-91.8487
-81.6213
-71.7412
-62.5312
-54.152
-46.6357
-39.9253
-33.9118
-28.467
-23.4636
-18.7917
-14.3616
-10.1044
-5.96917
-1.91868
2.07342
6.02711
10
10.6331
10.6331
8.29754
2.42713
-9.63953
-31.5166
-59.8925
-85.7183
-110.761
-127.99
-136.767
-140.427
-139.967
-135.796
-128.466
-118.796
-107.711
-96.0737
-84.5796
-73.7135
-63.7659
-54.8571
-46.9787
-40.0349
-33.8826
-28.3648
-23.3311
-18.6548
-14.2348
-9.9948
-5.87967
-1.85012
2.12128
6.05482
10
17.345
17.345
15.0832
9.15258
-5.33347
-44.7662
-59.8925
-85.7183
-110.761
-174.014
-167.455
-164.341
-159.642
-152.181
-141.75
-129.144
-115.436
-101.599
-88.3596
-76.1707
-65.2615
-55.6823
-47.358
-40.1348
-33.8211
-28.221
-23.1554
-18.4769
-14.0711
-9.85354
-5.76426
-1.76153
2.18322
6.09078
10
25.2836
25.2836
23.9329
21.0653
15.9592
15.9592
-59.8925
-85.7183
-110.761
-192.389
-192.389
-188.162
-182.684
-172.545
-158.428
-141.949
-124.735
-108.017
-92.5655
-78.7667
-66.7381
-56.4157
-47.6234
-40.1247
-33.6639
-27.9981
-22.9155
-18.2473
-13.8658
-9.67899
-5.62276
-1.65339
2.25864
6.13446
10
32.8012
32.8012
32.2149
31.4299
30.5695
30.5695
0
0
0
-190.635
-190.635
-196.324
-199.989
-190.916
-174.882
-155.032
-134.251
-114.445
-96.6079
-81.1031
-67.9298
-56.8851
-47.6679
-39.9416
-33.3764
-27.6784
-22.6034
-17.963
-13.6184
-9.47172
-5.45616
-1.5267
2.34664
6.18506
10
38.7274
38.7274
38.4769
38.4027
38.4007
38.4007
0
0
0
-191.628
-191.628
-195.237
-199.354
-196.743
-182.32
-162.117
-139.935
-118.456
-99.1105
-82.4379
-68.4568
-56.9092
-47.4139
-39.5585
-32.9539
-27.2657
-22.2251
-17.6295
-13.3333
-9.23515
-5.26694
-1.38325
2.4459
6.24148
10
42.7356
42.7356
42.5728
42.6339
42.7349
42.7349
0
0
0
-187.867
-187.867
-189.917
-192.056
-190.213
-178.957
-160.916
-139.787
-118.614
-99.1762
-82.2721
-68.0759
-56.3913
-46.8391
-38.9848
-32.4154
-26.7786
-21.7953
-17.258
-13.0185
-8.97491
-5.05903
-1.22571
2.55455
6.30224
10
45.0407
45.0407
44.8703
44.8869
44.932
44.932
0
0
0
-180.719
-180.719
-181.598
-182.055
-179.345
-169.894
-153.887
-134.999
-115.61
-97.2334
-80.8911
-66.9883
-55.4799
-46.0534
-38.3003
-31.8173
-26.2566
-21.3422
-16.8686
-12.689
-8.70231
-4.84089
-1.06026
2.66824
6.36405
10
46.1049
46.1049
45.9047
45.8446
45.8229
45.8229
0
0
0
-173.8
-173.8
-173.732
-172.745
-168.967
-160.286
-146.33
-129.33
-111.549
-94.7941
-79.2685
-65.7952
-54.552
-45.2992
-37.6661
-31.2717
-25.7821
-20.9295
-16.5126
-12.3868
-8.45175
-4.64014
-0.908166
2.77153
6.41629
10
46.438
46.438
46.2093
46.0871
46.0193
46.0193
0
0
0
-170.383
-170.383
-169.713
-167.718
-162.887
-154.204
-141.342
-125.618
-108.894
-92.7989
-78.2805
-65.1459
-54.0356
-44.88
-37.3132
-30.9658
-25.5129
-20.6921
-16.3052
-12.2089
-8.30309
-4.52053
-0.817773
2.83121
6.44098
10
46.438
46.438
46.2093
46.0871
46.0193
46.0193
0
0
0
-170.383
-170.383
-169.713
-167.718
-162.887
-154.204
-141.342
-125.618
-108.894
-92.7989
-78.2805
-65.1459
-54.0356
-44.88
-37.3132
-30.9658
-25.5129
-20.6921
-16.3052
-12.2089
-8.30309
-4.52053
-0.817773
2.83121
6.44098
10

SCALARS  u float
LOOKUP_TABLE default 
0.00966667
0.00662328
0.0072787
0.00962498
0.017787
0.0462659
0
0
0
0.0850865
0.0738718
0.0353657
-0.0211794
-0.0292688
-0.0313164
-0.030066
-0.0259114
-0.0197147
-0.0124233
-0.00478657
0.00260735
0.00912719
0.0147705
0.0195005
0.0233604
0.0264408
0.028853
0.0307139
0.0321331
0.0332071
0.0340171
0.034629
0.0350951
0.0354448
0.0354448
0.0360242
0.0338898
0.0323831
0.0330978
0.0450665
0.0981916
0
0
0
0.171246
0.139703
0.0466652
-0.0874096
-0.11407
-0.120309
-0.113129
-0.0946468
-0.0685559
-0.0385004
-0.00744067
0.0219593
0.0484037
0.0713879
0.0907493
0.106638
0.119395
0.129454
0.137274
0.143288
0.147881
0.151377
0.154041
0.156089
0.157664
0.157944
0.0587581
0.0557222
0.0512837
0.0477959
0.0554611
0.104499
0
0
0
0.177177
0.150387
0.0624483
-0.0789528
-0.107941
-0.109172
-0.0959115
-0.072533
-0.0432796
-0.0111858
0.0206641
0.0506181
0.0781968
0.102722
0.123948
0.141916
0.156846
0.169061
0.17893
0.186821
0.19308
0.198015
0.201891
0.204931
0.20729
0.207794
0.0791315
0.0753319
0.0686852
0.0613128
0.0638984
0.107185
0
0
0
0.182781
0.162787
0.0883318
-0.0457996
-0.078593
-0.0728065
-0.0546501
-0.0298289
-0.00210819
0.0260426
0.0532689
0.0790972
0.102872
0.12414
0.142702
0.158561
0.171867
0.182864
0.191845
0.199109
0.204939
0.209592
0.213289
0.216213
0.218498
0.219007
0.097332
0.0931237
0.0852273
0.075085
0.0729423
0.10919
0
0
0
0.189009
0.179283
0.127287
0.0210558
-0.0146536
-0.00351091
0.0151508
0.0362589
0.0580912
0.0790613
0.0990106
0.117703
0.134896
0.150396
0.164073
0.175886
0.18589
0.194219
0.201059
0.206617
0.2111
0.214694
0.217562
0.219839
0.221623
0.222023
0.113408
0.109384
0.101563
0.0902035
0.083776
0.1109
0
0
0
0.195468
0.199899
0.177295
0.122162
0.0952798
0.0995198
0.111612
0.124565
0.136652
0.147591
0.157533
0.166701
0.175236
0.183161
0.190414
0.196904
0.20257
0.207402
0.211443
0.214773
0.217489
0.219687
0.221455
0.222867
0.223977
0.224224
0.127399
0.124563
0.119147
0.109679
0.100053
0.120211
0
0
0
0.197321
0.228247
0.240059
0.237738
0.231344
0.227665
0.227426
0.227265
0.226317
0.224768
0.223018
0.221459
0.220371
0.219878
0.219949
0.22045
0.221215
0.222091
0.222973
0.223797
0.224533
0.225172
0.225713
0.226162
0.226521
0.226598
0.139334
0.13899
0.139583
0.139025
0.137304
0.216396
0.220506
0.248191
0.307339
0.435381
0.426077
0.415027
0.400797
0.381454
0.36185
0.343748
0.327252
0.312128
0.298221
0.285514
0.274126
0.264227
0.255932
0.249231
0.243983
0.239968
0.236939
0.234674
0.232986
0.231731
0.230796
0.230097
0.229571
0.229169
0.229074
0.149194
0.151957
0.160932
0.176415
0.204287
0.260932
0.302917
0.341182
0.411484
0.46678
0.464018
0.460836
0.453592
0.44159
0.426072
0.408438
0.389736
0.370665
0.351723
0.333358
0.31604
0.300236
0.286312
0.274451
0.264636
0.256693
0.250366
0.245382
0.241482
0.238445
0.236084
0.234249
0.232821
0.23171
0.231454
0.156881
0.16156
0.17575
0.200643
0.240189
0.292955
0.339723
0.381476
0.428453
0.464137
0.477091
0.48243
0.481264
0.47423
0.462355
0.446752
0.428465
0.408408
0.387395
0.3662
0.345592
0.326286
0.308852
0.29363
0.280716
0.270005
0.261268
0.25423
0.248609
0.244148
0.240623
0.237843
0.235654
0.233938
0.233545
0.162341
0.167371
0.182511
0.209389
0.249576
0.300584
0.351061
0.396132
0.436255
0.467265
0.486611
0.496776
0.499227
0.494807
0.484679
0.469981
0.451797
0.431148
0.409008
0.386326
0.364014
0.342894
0.323604
0.30654
0.291844
0.279457
0.269187
0.260781
0.253969
0.248492
0.244113
0.240627
0.237861
0.235681
0.235183
0.165587
0.170114
0.183732
0.208421
0.245276
0.292489
0.343159
0.391021
0.432654
0.465356
0.487932
0.500985
0.505605
0.502849
0.493918
0.479982
0.462168
0.441563
0.419225
0.396176
0.37338
0.351679
0.331716
0.313893
0.298377
0.285143
0.274043
0.264858
0.257341
0.251245
0.246338
0.242409
0.239277
0.236801
0.236235
0.166655
0.170727
0.182979
0.205537
0.239772
0.284621
0.334769
0.383782
0.426982
0.461348
0.485614
0.500048
0.505669
0.503737
0.49549
0.482099
0.464691
0.44436
0.422176
0.39918
0.376353
0.354544
0.334408
0.316358
0.300578
0.287065
0.275686
0.266239
0.258484
0.25218
0.247095
0.243017
0.239761
0.237183
0.236594
0.165587
0.170114
0.183732
0.208421
0.245276
0.292489
0.343159
0.391021
0.432654
0.465356
0.487932
0.500985
0.505605
0.502849
0.493918
0.479982
0.462168
0.441563
0.419225
0.396176
0.37338
0.351679
0.331716
0.313893
0.298377
0.285143
0.274043
0.264858
0.257341
0.251245
0.246338
0.242409
0.239277
0.236801
0.236235
0.162341
0.167371
0.182511
0.209389
0.249576
0.300584
0.351061
0.396132
0.436255
0.467265
0.486611
0.496776
0.499227
0.494807
0.484679
0.469981
0.451797
0.431148
0.409008
0.386326
0.364014
0.342894
0.323604
0.30654
0.291844
0.279457
0.269187
0.260781
0.253969
0.248492
0.244113
0.240627
0.237861
0.235681
0.235183
0.156881
0.16156
0.17575
0.200643
0.240189
0.292955
0.339723
0.381476
0.428453
0.464137
0.477091
0.48243
0.481264
0.47423
0.462355
0.446752
0.428465
0.408408
0.387395
0.3662
0.345592
0.326286
0.308852
0.29363
0.280716
0.270005
0.261268
0.25423
0.248609
0.244148
0.240623
0.237843
0.235654
0.233938
0.233545
0.149194
0.151957
0.160932
0.176415
0.204287
0.260932
0.302917
0.341182
0.411484
0.46678
0.464018
0.460836
0.453592
0.44159
0.426072
0.408438
0.389736
0.370665
0.351723
0.333358
0.31604
0.300236
0.286312
0.274451
0.264636
0.256693
0.250366
0.245382
0.241482
0.238445