# vtk DataFile Version 3.0
vtk output240
ASCII
DATASET STRUCTURED_GRID
DIMENSIONS 36 26 1
POINTS 936 float
0 0 0
0.171429 0 0
0.342857 0 0
0.514286 0 0
0.685714 0 0
0.857143 0 0
1.02857 0 0
1.2 0 0
1.37143 0 0
1.54286 0 0
1.71429 0 0
1.88571 0 0
2.05714 0 0
2.22857 0 0
2.4 0 0
2.57143 0 0
2.74286 0 0
2.91429 0 0
3.08571 0 0
3.25714 0 0
3.42857 0 0
3.6 0 0
3.77143 0 0
3.94286 0 0
4.11429 0 0
4.28571 0 0
4.45714 0 0
4.62857 0 0
4.8 0 0
4.97143 0 0
5.14286 0 0
5.31429 0 0
5.48571 0 0
5.65714 0 0
5.82857 0 0
6 0 0
0 0.2 0
0.171429 0.2 0
0.342857 0.2 0
0.514286 0.2 0
0.685714 0.2 0
0.857143 0.2 0
1.02857 0.2 0
1.2 0.2 0
1.37143 0.2 0
1.54286 0.2 0
1.71429 0.2 0
1.88571 0.2 0
2.05714 0.2 0
2.22857 0.2 0
2.4 0.2 0
2.57143 0.2 0
2.74286 0.2 0
2.91429 0.2 0
3.08571 0.2 0
3.25714 0.2 0
3.42857 0.2 0
3.6 0.2 0
3.77143 0.2 0
3.94286 0.2 0
4.11429 0.2 0
4.28571 0.2 0
4.45714 0.2 0
4.62857 0.2 0
4.8 0.2 0
4.97143 0.2 0
5.14286 0.2 0
5.31429 0.2 0
5.48571 0.2 0
5.65714 0.2 0
5.82857 0.2 0
6 0.2 0
0 0.4 0
0.171429 0.4 0
0.342857 0.4 0
0.514286 0.4 0
0.685714 0.4 0
0.857143 0.4 0
1.02857 0.4 0
1.2 0.4 0
1.37143 0.4 0
1.54286 0.4 0
1.71429 0.4 0
1.88571 0.4 0
2.05714 0.4 0
2.22857 0.4 0
2.4 0.4 0
2.57143 0.4 0
2.74286 0.4 0
2.91429 0.4 0
3.08571 0.4 0
3.25714 0.4 0
3.42857 0.4 0
3.6 0.4 0
3.77143 0.4 0
3.94286 0.4 0
4.11429 0.4 0
4.28571 0.4 0
4.45714 0.4 0
4.62857 0.4 0
4.8 0.4 0
4.97143 0.4 0
5.14286 0.4 0
5.31429 0.4 0
5.48571 0.4 0
5.65714 0.4 0
5.82857 0.4 0
6 0.4 0
0 0.6 0
0.171429 0.6 0
0.342857 0.6 0
0.514286 0.6 0
0.685714 0.6 0
0.857143 0.6 0
1.02857 0.6 0
1.2 0.6 0
1.37143 0.6 0
1.54286 0.6 0
1.71429 0.6 0
1.88571 0.6 0
2.05714 0.6 0
2.22857 0.6 0
2.4 0.6 0
2.57143 0.6 0
2.74286 0.6 0
2.91429 0.6 0
3.08571 0.6 0
3.25714 0.6 0
3.42857 0.6 0
3.6 0.6 0
3.77143 0.6 0
3.94286 0.6 0
4.11429 0.6 0
4.28571 0.6 0
4.45714 0.6 0
4.62857 0.6 0
4.8 0.6 0
4.97143 0.6 0
5.14286 0.6 0
5.31429 0.6 0
5.48571 0.6 0
5.65714 0.6 0
5.82857 0.6 0
6 0.6 0
0 0.8 0
0.171429 0.8 0
0.342857 0.8 0
0.514286 0.8 0
0.685714 0.8 0
0.857143 0.8 0
1.02857 0.8 0
1.2 0.8 0
1.37143 0.8 0
1.54286 0.8 0
1.71429 0.8 0
1.88571 0.8 0
2.05714 0.8 0
2.22857 0.8 0
2.4 0.8 0
2.57143 0.8 0
2.74286 0.8 0
2.91429 0.8 0
3.08571 0.8 0
3.25714 0.8 0
3.42857 0.8 0
3.6 0.8 0
3.77143 0.8 0
3.94286 0.8 0
4.11429 0.8 0
4.28571 0.8 0
4.45714 0.8 0
4.62857 0.8 0
4.8 0.8 0
4.97143 0.8 0
5.14286 0.8 0
5.31429 0.8 0
5.48571 0.8 0
5.65714 0.8 0
5.82857 0.8 0
6 0.8 0
0 1 0
0.171429 1 0
0.342857 1 0
0.514286 1 0
0.685714 1 0
0.857143 1 0
1.02857 1 0
1.2 1 0
1.37143 1 0
1.54286 1 0
1.71429 1 0
1.88571 1 0
2.05714 1 0
2.22857 1 0
2.4 1 0
2.57143 1 0
2.74286 1 0
2.91429 1 0
3.08571 1 0
3.25714 1 0
3.42857 1 0
3.6 1 0
3.77143 1 0
3.94286 1 0
4.11429 1 0
4.28571 1 0
4.45714 1 0
4.62857 1 0
4.8 1 0
4.97143 1 0
5.14286 1 0
5.31429 1 0
5.48571 1 0
5.65714 1 0
5.82857 1 0
6 1 0
0 1.2 0
0.171429 1.2 0
0.342857 1.2 0
0.514286 1.2 0
0.685714 1.2 0
0.857143 1.2 0
1.02857 1.2 0
1.2 1.2 0
1.37143 1.2 0
1.54286 1.2 0
1.71429 1.2 0
1.88571 1.2 0
2.05714 1.2 0
2.22857 1.2 0
2.4 1.2 0
2.57143 1.2 0
2.74286 1.2 0
2.91429 1.2 0
3.08571 1.2 0
3.25714 1.2 0
3.42857 1.2 0
3.6 1.2 0
3.77143 1.2 0
3.94286 1.2 0
4.11429 1.2 0
4.28571 1.2 0
4.45714 1.2 0
4.62857 1.2 0
4.8 1.2 0
4.97143 1.2 0
5.14286 1.2 0
5.31429 1.2 0
5.48571 1.2 0
5.65714 1.2 0
5.82857 1.2 0
6 1.2 0
0 1.4 0
0.171429 1.4 0
0.342857 1.4 0
0.514286 1.4 0
0.685714 1.4 0
0.857143 1.4 0
1.02857 1.4 0
1.2 1.4 0
1.37143 1.4 0
1.54286 1.4 0
1.71429 1.4 0
1.88571 1.4 0
2.05714 1.4 0
2.22857 1.4 0
2.4 1.4 0
2.57143 1.4 0
2.74286 1.4 0
2.91429 1.4 0
3.08571 1.4 0
3.25714 1.4 0
3.42857 1.4 0
3.6 1.4 0
3.77143 1.4 0
3.94286 1.4 0
4.11429 1.4 0
4.28571 1.4 0
4.45714 1.4 0
4.62857 1.4 0
4.8 1.4 0
4.97143 1.4 0
5.14286 1.4 0
5.31429 1.4 0
5.48571 1.4 0
5.65714 1.4 0
5.82857 1.4 0
6 1.4 0
0 1.6 0
0.171429 1.6 0
0.342857 1.6 0
0.514286 1.6 0
0.685714 1.6 0
0.857143 1.6 0
1.02857 1.6 0
1.2 1.6 0
1.37143 1.6 0
1.54286 1.6 0
1.71429 1.6 0
1.88571 1.6 0
2.05714 1.6 0
2.22857 1.6 0
2.4 1.6 0
2.57143 1.6 0
2.74286 1.6 0
2.91429 1.6 0
3.08571 1.6 0
3.25714 1.6 0
3.42857 1.6 0
3.6 1.6 0
3.77143 1.6 0
3.94286 1.6 0
4.11429 1.6 0
4.28571 1.6 0
4.45714 1.6 0
4.62857 1.6 0
4.8 1.6 0
4.97143 1.6 0
5.14286 1.6 0
5.31429 1.6 0
5.48571 1.6 0
5.65714 1.6 0
5.82857 1.6 0
6 1.6 0
0 1.8 0
0.171429 1.8 0
0.342857 1.8 0
0.514286 1.8 0
0.685714 1.8 0
0.857143 1.8 0
1.02857 1.8 0
1.2 1.8 0
1.37143 1.8 0
1.54286 1.8 0
1.71429 1.8 0
1.88571 1.8 0
2.05714 1.8 0
2.22857 1.8 0
2.4 1.8 0
2.57143 1.8 0
2.74286 1.8 0
2.91429 1.8 0
3.08571 1.8 0
3.25714 1.8 0
3.42857 1.8 0
3.6 1.8 0
3.77143 1.8 0
3.94286 1.8 0
4.11429 1.8 0
4.28571 1.8 0
4.45714 1.8 0
4.62857 1.8 0
4.8 1.8 0
4.97143 1.8 0
5.14286 1.8 0
5.31429 1.8 0
5.48571 1.8 0
5.65714 1.8 0
5.82857 1.8 0
6 1.8 0
0 2 0
0.171429 2 0
0.342857 2 0
0.514286 2 0
0.685714 2 0
0.857143 2 0
1.02857 2 0
1.2 2 0
1.37143 2 0
1.54286 2 0
1.71429 2 0
1.88571 2 0
2.05714 2 0
2.22857 2 0
2.4 2 0
2.57143 2 0
2.74286 2 0
2.91429 2 0
3.08571 2 0
3.25714 2 0
3.42857 2 0
3.6 2 0
3.77143 2 0
3.94286 2 0
4.11429 2 0
4.28571 2 0
4.45714 2 0
4.62857 2 0
4.8 2 0
4.97143 2 0
5.14286 2 0
5.31429 2 0
5.48571 2 0
5.65714 2 0
5.82857 2 0
6 2 0
0 2.2 0
0.171429 2.2 0
0.342857 2.2 0
0.514286 2.2 0
0.685714 2.2 0
0.857143 2.2 0
1.02857 2.2 0
1.2 2.2 0
1.37143 2.2 0
1.54286 2.2 0
1.71429 2.2 0
1.88571 2.2 0
2.05714 2.2 0
2.22857 2.2 0
2.4 2.2 0
2.57143 2.2 0
2.74286 2.2 0
2.91429 2.2 0
3.08571 2.2 0
3.25714 2.2 0
3.42857 2.2 0
3.6 2.2 0
3.77143 2.2 0
3.94286 2.2 0
4.11429 2.2 0
4.28571 2.2 0
4.45714 2.2 0
4.62857 2.2 0
4.8 2.2 0
4.97143 2.2 0
5.14286 2.2 0
5.31429 2.2 0
5.48571 2.2 0
5.65714 2.2 0
5.82857 2.2 0
6 2.2 0
0 2.4 0
0.171429 2.4 0
0.342857 2.4 0
0.514286 2.4 0
0.685714 2.4 0
0.857143 2.4 0
1.02857 2.4 0
1.2 2.4 0
1.37143 2.4 0
1.54286 2.4 0
1.71429 2.4 0
1.88571 2.4 0
2.05714 2.4 0
2.22857 2.4 0
2.4 2.4 0
2.57143 2.4 0
2.74286 2.4 0
2.91429 2.4 0
3.08571 2.4 0
3.25714 2.4 0
3.42857 2.4 0
3.6 2.4 0
3.77143 2.4 0
3.94286 2.4 0
4.11429 2.4 0
4.28571 2.4 0
4.45714 2.4 0
4.62857 2.4 0
4.8 2.4 0
4.97143 2.4 0
5.14286 2.4 0
5.31429 2.4 0
5.48571 2.4 0
5.65714 2.4 0
5.82857 2.4 0
6 2.4 0
0 2.6 0
0.171429 2.6 0
0.342857 2.6 0
0.514286 2.6 0
0.685714 2.6 0
0.857143 2.6 0
1.02857 2.6 0
1.2 2.6 0
1.37143 2.6 0
1.54286 2.6 0
1.71429 2.6 0
1.88571 2.6 0
2.05714 2.6 0
2.22857 2.6 0
2.4 2.6 0
2.57143 2.6 0
2.74286 2.6 0
2.91429 2.6 0
3.08571 2.6 0
3.25714 2.6 0
3.42857 2.6 0
3.6 2.6 0
3.77143 2.6 0
3.94286 2.6 0
4.11429 2.6 0
4.28571 2.6 0
4.45714 2.6 0
4.62857 2.6 0
4.8 2.6 0
4.97143 2.6 0
5.14286 2.6 0
5.31429 2.6 0
5.48571 2.6 0
5.65714 2.6 0
5.82857 2.6 0
6 2.6 0
0 2.8 0
0.171429 2.8 0
0.342857 2.8 0
0.514286 2.8 0
0.685714 2.8 0
0.857143 2.8 0
1.02857 2.8 0
1.2 2.8 0
1.37143 2.8 0
1.54286 2.8 0
1.71429 2.8 0
1.88571 2.8 0
2.05714 2.8 0
2.22857 2.8 0
2.4 2.8 0
2.57143 2.8 0
2.74286 2.8 0
2.91429 2.8 0
3.08571 2.8 0
3.25714 2.8 0
3.42857 2.8 0
3.6 2.8 0
3.77143 2.8 0
3.94286 2.8 0
4.11429 2.8 0
4.28571 2.8 0
4.45714 2.8 0
4.62857 2.8 0
4.8 2.8 0
4.97143 2.8 0
5.14286 2.8 0
5.31429 2.8 0
5.48571 2.8 0
5.65714 2.8 0
5.82857 2.8 0
6 2.8 0
0 3 0
0.171429 3 0
0.342857 3 0
0.514286 3 0
0.685714 3 0
0.857143 3 0
1.02857 3 0
1.2 3 0
1.37143 3 0
1.54286 3 0
1.71429 3 0
1.88571 3 0
2.05714 3 0
2.22857 3 0
2.4 3 0
2.57143 3 0
2.74286 3 0
2.91429 3 0
3.08571 3 0
3.25714 3 0
3.42857 3 0
3.6 3 0
3.77143 3 0
3.94286 3 0
4.11429 3 0
4.28571 3 0
4.45714 3 0
4.62857 3 0
4.8 3 0
4.97143 3 0
5.14286 3 0
5.31429 3 0
5.48571 3 0
5.65714 3 0
5.82857 3 0
6 3 0
0 3.2 0
0.171429 3.2 0
0.342857 3.2 0
0.514286 3.2 0
0.685714 3.2 0
0.857143 3.2 0
1.02857 3.2 0
1.2 3.2 0
1.37143 3.2 0
1.54286 3.2 0
1.71429 3.2 0
1.88571 3.2 0
2.05714 3.2 0
2.22857 3.2 0
2.4 3.2 0
2.57143 3.2 0
2.74286 3.2 0
2.91429 3.2 0
3.08571 3.2 0
3.25714 3.2 0
3.42857 3.2 0
3.6 3.2 0
3.77143 3.2 0
3.94286 3.2 0
4.11429 3.2 0
4.28571 3.2 0
4.45714 3.2 0
4.62857 3.2 0
4.8 3.2 0
4.97143 3.2 0
5.14286 3.2 0
5.31429 3.2 0
5.48571 3.2 0
5.65714 3.2 0
5.82857 3.2 0
6 3.2 0
0 3.4 0
0.171429 3.4 0
0.342857 3.4 0
0.514286 3.4 0
0.685714 3.4 0
0.857143 3.4 0
1.02857 3.4 0
1.2 3.4 0
1.37143 3.4 0
1.54286 3.4 0
1.71429 3.4 0
1.88571 3.4 0
2.05714 3.4 0
2.22857 3.4 0
2.4 3.4 0
2.57143 3.4 0
2.74286 3.4 0
2.91429 3.4 0
3.08571 3.4 0
3.25714 3.4 0
3.42857 3.4 0
3.6 3.4 0
3.77143 3.4 0
3.94286 3.4 0
4.11429 3.4 0
4.28571 3.4 0
4.45714 3.4 0
4.62857 3.4 0
4.8 3.4 0
4.97143 3.4 0
5.14286 3.4 0
5.31429 3.4 0
5.48571 3.4 0
5.65714 3.4 0
5.82857 3.4 0
6 3.4 0
0 3.6 0
0.171429 3.6 0
0.342857 3.6 0
0.514286 3.6 0
0.685714 3.6 0
0.857143 3.6 0
1.02857 3.6 0
1.2 3.6 0
1.37143 3.6 0
1.54286 3.6 0
1.71429 3.6 0
1.88571 3.6 0
2.05714 3.6 0
2.22857 3.6 0
2.4 3.6 0
2.57143 3.6 0
2.74286 3.6 0
2.91429 3.6 0
3.08571 3.6 0
3.25714 3.6 0
3.42857 3.6 0
3.6 3.6 0
3.77143 3.6 0
3.94286 3.6 0
4.11429 3.6 0
4.28571 3.6 0
4.45714 3.6 0
4.62857 3.6 0
4.8 3.6 0
4.97143 3.6 0
5.14286 3.6 0
5.31429 3.6 0
5.48571 3.6 0
5.65714 3.6 0
5.82857 3.6 0
6 3.6 0
0 3.8 0
0.171429 3.8 0
0.342857 3.8 0
0.514286 3.8 0
0.685714 3.8 0
0.857143 3.8 0
1.02857 3.8 0
1.2 3.8 0
1.37143 3.8 0
1.54286 3.8 0
1.71429 3.8 0
1.88571 3.8 0
2.05714 3.8 0
2.22857 3.8 0
2.4 3.8 0
2.57143 3.8 0
2.74286 3.8 0
2.91429 3.8 0
3.08571 3.8 0
3.25714 3.8 0
3.42857 3.8 0
3.6 3.8 0
3.77143 3.8 0
3.94286 3.8 0
4.11429 3.8 0
4.28571 3.8 0
4.45714 3.8 0
4.62857 3.8 0
4.8 3.8 0
4.97143 3.8 0
5.14286 3.8 0
5.31429 3.8 0
5.48571 3.8 0
5.65714 3.8 0
5.82857 3.8 0
6 3.8 0
0 4 0
0.171429 4 0
0.342857 4 0
0.514286 4 0
0.685714 4 0
0.857143 4 0
1.02857 4 0
1.2 4 0
1.37143 4 0
1.54286 4 0
1.71429 4 0
1.88571 4 0
2.05714 4 0
2.22857 4 0
2.4 4 0
2.57143 4 0
2.74286 4 0
2.91429 4 0
3.08571 4 0
3.25714 4 0
3.42857 4 0
3.6 4 0
3.77143 4 0
3.94286 4 0
4.11429 4 0
4.28571 4 0
4.45714 4 0
4.62857 4 0
4.8 4 0
4.97143 4 0
5.14286 4 0
5.31429 4 0
5.48571 4 0
5.65714 4 0
5.82857 4 0
6 4 0
0 4.2 0
0.171429 4.2 0
0.342857 4.2 0
0.514286 4.2 0
0.685714 4.2 0
0.857143 4.2 0
1.02857 4.2 0
1.2 4.2 0
1.37143 4.2 0
1.54286 4.2 0
1.71429 4.2 0
1.88571 4.2 0
2.05714 4.2 0
2.22857 4.2 0
2.4 4.2 0
2.57143 4.2 0
2.74286 4.2 0
2.91429 4.2 0
3.08571 4.2 0
3.25714 4.2 0
3.42857 4.2 0
3.6 4.2 0
3.77143 4.2 0
3.94286 4.2 0
4.11429 4.2 0
4.28571 4.2 0
4.45714 4.2 0
4.62857 4.2 0
4.8 4.2 0
4.97143 4.2 0
5.14286 4.2 0
5.31429 4.2 0
5.48571 4.2 0
5.65714 4.2 0
5.82857 4.2 0
6 4.2 0
0 4.4 0
0.171429 4.4 0
0.342857 4.4 0
0.514286 4.4 0
0.685714 4.4 0
0.857143 4.4 0
1.02857 4.4 0
1.2 4.4 0
1.37143 4.4 0
1.54286 4.4 0
1.71429 4.4 0
1.88571 4.4 0
2.05714 4.4 0
2.22857 4.4 0
2.4 4.4 0
2.57143 4.4 0
2.74286 4.4 0
2.91429 4.4 0
3.08571 4.4 0
3.25714 4.4 0
3.42857 4.4 0
3.6 4.4 0
3.77143 4.4 0
3.94286 4.4 0
4.11429 4.4 0
4.28571 4.4 0
4.45714 4.4 0
4.62857 4.4 0
4.8 4.4 0
4.97143 4.4 0
5.14286 4.4 0
5.31429 4.4 0
5.48571 4.4 0
5.65714 4.4 0
5.82857 4.4 0
6 4.4 0
0 4.6 0
0.171429 4.6 0
0.342857 4.6 0
0.514286 4.6 0
0.685714 4.6 0
0.857143 4.6 0
1.02857 4.6 0
1.2 4.6 0
1.37143 4.6 0
1.54286 4.6 0
1.71429 4.6 0
1.88571 4.6 0
2.05714 4.6 0
2.22857 4.6 0
2.4 4.6 0
2.57143 4.6 0
2.74286 4.6 0
2.91429 4.6 0
3.08571 4.6 0
3.25714 4.6 0
3.42857 4.6 0
3.6 4.6 0
3.77143 4.6 0
3.94286 4.6 0
4.11429 4.6 0
4.28571 4.6 0
4.45714 4.6 0
4.62857 4.6 0
4.8 4.6 0
4.97143 4.6 0
5.14286 4.6 0
5.31429 4.6 0
5.48571 4.6 0
5.65714 4.6 0
5.82857 4.6 0
6 4.6 0
0 4.8 0
0.171429 4.8 0
0.342857 4.8 0
0.514286 4.8 0
0.685714 4.8 0
0.857143 4.8 0
1.02857 4.8 0
1.2 4.8 0
1.37143 4.8 0
1.54286 4.8 0
1.71429 4.8 0
1.88571 4.8 0
2.05714 4.8 0
2.22857 4.8 0
2.4 4.8 0
2.57143 4.8 0
2.74286 4.8 0
2.91429 4.8 0
3.08571 4.8 0
3.25714 4.8 0
3.42857 4.8 0
3.6 4.8 0
3.77143 4.8 0
3.94286 4.8 0
4.11429 4.8 0
4.28571 4.8 0
4.45714 4.8 0
4.62857 4.8 0
4.8 4.8 0
4.97143 4.8 0
5.14286 4.8 0
5.31429 4.8 0
5.48571 4.8 0
5.65714 4.8 0
5.82857 4.8 0
6 4.8 0
0 5 0
0.171429 5 0
0.342857 5 0
0.514286 5 0
0.685714 5 0
0.857143 5 0
1.02857 5 0
1.2 5 0
1.37143 5 0
1.54286 5 0
1.71429 5 0
1.88571 5 0
2.05714 5 0
2.22857 5 0
2.4 5 0
2.57143 5 0
2.74286 5 0
2.91429 5 0
3.08571 5 0
3.25714 5 0
3.42857 5 0
3.6 5 0
3.77143 5 0
3.94286 5 0
4.11429 5 0
4.28571 5 0
4.45714 5 0
4.62857 5 0
4.8 5 0
4.97143 5 0
5.14286 5 0
5.31429 5 0
5.48571 5 0
5.65714 5 0
5.82857 5 0
6 5 0

CELL_DATA 875
SCALARS phi float
LOOKUP_TABLE default 
4.711
4.711
4.711
4.711
4.711
4.711
4.711
4.711
4.711
4.711
4.711
4.711
4.711
4.711
4.711
4.711
4.711
4.711
4.711
4.711
4.711
4.711
4.711
4.711
4.711
4.711
4.711
4.711
4.711
4.711
4.711
4.711
4.711
4.711
4.711
4.711
4.711
4.711
4.711
4.711
4.711
4.711
4.711
4.711
4.711
4.711
4.711
4.711
4.711
4.711
4.711
4.711
4.711
4.711
4.711
4.711
4.711
4.711
4.711
4.711
4.711
4.711
4.711
4.711
4.711
4.711
4.711
4.711
4.711
4.711
4.711
4.711
4.711
4.711
4.711
4.711
4.711
4.711
4.711
4.711
4.711
4.711
4.711
4.711
4.711
4.711
4.711
4.711
4.711
4.711
4.711
4.711
4.711
4.711
4.711
4.711
4.711
4.711
4.711
4.711
4.711
4.711
4.711
4.711
4.711
4.711
4.711
4.711
4.711
4.711
4.711
4.711
4.711
4.711
4.711
4.711
4.711
4.711
4.711
4.711
4.711
4.711
4.711
4.711
4.711
4.711
4.711
4.711
4.711
4.711
4.711
4.711
4.711
4.711
4.711
4.711
4.711
4.711
4.711
4.711
4.711
4.711
4.711
4.711
4.711
4.711
4.711
4.711
4.711
4.711
4.711
4.711
4.711
4.711
4.711
4.711
4.711
4.711
4.711
4.711
4.711
4.711
4.711
4.711
4.711
4.711
4.711
4.711
4.711
4.711
4.711
4.711
4.711
4.711
4.711
4.711
4.711
4.711
4.711
4.711
4.711
4.711
4.711
4.711
4.711
4.711
4.711
4.711
4.711
4.711
4.711
4.711
4.711
4.711
4.711
4.711
4.711
4.711
4.711
4.711
4.711
4.711
4.711
4.711
4.711
4.711
4.711
4.711
4.711
4.711
4.711
4.711
4.711
4.711
4.711
4.711
4.711
4.711
4.711
4.711
4.711
4.711
4.711
4.711
4.711
4.711
4.711
4.711
4.711
4.711
4.711
4.711
4.711
4.711
4.711
4.711
4.711
4.711
4.711
4.711
4.711
4.711
4.711
4.711
4.711
4.711
4.711
4.711
4.711
4.711
4.711
4.711
4.711
4.711
4.711
4.711
4.711
4.711
4.711
4.711
4.711
4.711
4.711
4.711
4.711
4.711
4.711
4.711
4.711
4.711
4.711
4.711
4.711
4.711
4.711
4.711
4.711
4.711
4.711
4.711
4.711
4.711
4.711
4.711
4.711
4.711
4.711
4.711
4.711
4.711
4.711
4.711
4.711
4.711
4.711
4.711
4.711
4.711
4.711
4.711
4.711
4.711
4.711
4.711
4.711
4.711
4.711
4.711
4.711
4.711
4.711
4.711
4.711
4.711
4.711
4.711
4.711
4.711
4.711
4.711
4.711
4.711
4.711
4.711
4.711
4.711
4.711
4.711
4.711
4.711
4.711
4.711
4.711
4.711
4.711
4.711
4.711
4.711
4.711
4.711
4.711
4.711
4.711
4.711
4.711
4.711
4.711
4.711
4.711
4.711
4.711
4.711
4.711
4.711
4.711
4.711
4.711
4.711
4.711
4.711
4.711
4.711
4.711
4.711
4.711
4.711
4.711
4.711
4.711
4.711
4.711
4.711
4.711
4.711
4.711
4.711
4.711
4.711
4.711
4.711
4.711
4.711
4.711
4.711
4.711
4.711
4.711
4.711
4.711
4.711
4.711
4.711
4.711
4.711
4.711
4.711
4.711
4.711
4.711
4.711
4.711
4.711
4.711
4.711
4.711
4.711
4.711
4.711
4.711
4.711
4.711
4.711
4.711
4.711
4.711
4.711
4.711
4.711
4.711
4.711
4.711
4.711
4.711
4.711
4.711
4.711
4.711
4.711
4.711
4.711
4.711
4.711
4.711
4.711
4.711
4.711
4.711
4.711
4.711
4.711
4.711
4.711
4.711
4.711
4.711
4.711
4.711
4.711
4.711
4.711
4.711
4.711
4.711
4.711
4.711
4.711
4.711
4.711
4.711
4.711
4.711
4.711
4.711
4.711
4.711
4.711
4.711
4.711
4.711
4.711
4.711
4.711
4.711
4.711
4.711
4.711
4.711
4.711
4.711
4.711
4.711
4.711
4.711
4.711
4.711
4.711
4.711
4.711
4.711
4.711
4.711
4.711
4.711
4.711
4.711
4.711
4.711
4.711
4.711
4.711
4.711
4.711
4.711
4.711
4.711
4.711
4.711
4.711
4.711
4.711
4.711
4.711
4.711
4.711
4.711
4.711
4.711
4.711
4.711
4.711
4.711
4.711
4.711
4.711
4.711
4.711
4.711
4.711
4.711
4.711
4.711
4.711
4.711
4.711
4.711
4.711
4.711
4.711
4.711
4.711
4.711
4.711
4.711
4.711
4.711
4.711
4.711
4.711
4.711
4.711
4.711
4.711
4.711
4.711
4.711
4.711
4.711
4.711
4.711
4.711
4.711
4.711
4.711
4.711
4.711
4.711
4.711
4.711
4.711
4.711
4.711
4.711
4.711
4.711
4.711
4.711
4.711
4.711
4.711
4.711
4.711
4.711
4.711
4.711
4.711
4.711
4.711
4.711
4.711
4.711
4.711
4.711
4.711
4.711
4.711
4.711
4.711
4.711
4.711
4.711
4.711
4.711
4.711
4.711
4.711
4.711
4.711
4.711
4.711
4.711
4.711
4.711
4.711
4.711
4.711
4.711
4.711
4.711
4.711
4.711
4.711
4.711
4.711
4.711
4.711
4.711
4.711
4.711
4.711
4.711
4.711
4.711
4.711
4.711
4.711
4.711
4.711
4.711
4.711
4.711
4.711
4.711
4.711
4.711
4.711
4.711
4.711
4.711
4.711
4.711
4.711
4.711
4.711
4.711
4.711
4.711
4.711
4.711
4.711
4.711
4.711
4.711
4.711
4.711
4.711
4.711
4.711
4.711
4.711
4.711
4.711
4.711
4.711
4.711
4.711
4.711
4.711
4.711
4.711
4.711
4.711
4.711
4.711
4.711
4.711
4.711
4.711
4.711
4.711
4.711
4.711
4.711
4.711
4.711
4.711
4.711
4.711
4.711
4.711
4.711
4.711
4.711
4.711
4.711
4.711
4.711
4.711
4.711
4.711
4.711
4.711
4.711
4.711
4.711
4.711
4.711
4.711
4.711
4.711
4.711
4.711
4.711
4.711
4.711
4.711
4.711
4.711
4.711
4.711
4.711
4.711
4.711
4.711
4.711
4.711
4.711
4.711
4.711
4.711
4.711
4.711
4.711
4.711
4.711
4.711
4.711
4.711
4.711
4.711
4.711
4.711
4.711
4.711
4.711
4.711
4.711
4.711
4.711
4.711
4.711
4.711
4.711
4.711
4.711
4.711
4.711
4.711
4.711
4.711
4.711
4.711
4.711
4.711
4.711
4.711
4.711
4.711
4.711
4.711
4.711
4.711
4.711
4.711
4.711
4.711
4.711
4.711
4.711
4.711
4.711
4.711
4.711
4.711
4.711
4.711
4.711
4.711
4.711
4.711
4.711
4.711
4.711
4.711
4.711
4.711
4.711
4.711
4.711
4.711
4.711
4.711
4.711
4.711
4.711
4.711
4.711
4.711
4.711
4.711
4.711
4.711
4.711
4.711
4.711
4.711
4.711
4.711
4.711
4.711
4.711
4.711
4.711
4.711
4.711
4.711
4.711
4.711
4.711
4.711
4.711
4.711
4.711
4.711
4.711
4.711
4.711
4.711
4.711
4.711
4.711
4.711
4.711
4.711
4.711
4.711
4.711
4.711
4.711
4.711
4.711
4.711
4.711
4.711
4.711
4.711
4.711
4.711
4.711
4.711
4.711
4.711
4.711
4.711
4.711
4.711

SCALARS p float
LOOKUP_TABLE default 
40.8927
40.8927
40.7168
40.638
40.6101
40.6101
0
0
0
-158.009
-158.009
-158.793
-159.624
-158.992
-155.449
-147.613
-135.305
-119.858
-103.11
-86.6608
-71.5928
-58.4641
-47.3227
-37.6545
-29.628
-23.0603
-17.6012
-12.9614
-8.91091
-5.27483
-1.92483
1.22965
4.24957
7.17458
10
40.8927
40.8927
40.7168
40.638
40.6101
40.6101
0
0
0
-158.009
-158.009
-158.793
-159.624
-158.992
-155.449
-147.613
-135.305
-119.858
-103.11
-86.6608
-71.5928
-58.4641
-47.3227
-37.6545
-29.628
-23.0603
-17.6012
-12.9614
-8.91091
-5.27483
-1.92483
1.22965
4.24957
7.17458
10
40.5478
40.5478
40.4149
40.4103
40.4489
40.4489
0
0
0
-160.721
-160.721
-162.056
-163.944
-164.697
-162.3
-154.27
-140.646
-123.711
-105.792
-88.5706
-73.0103
-59.6677
-47.8589
-38.0692
-30.0251
-23.4119
-17.9051
-13.2215
-9.13147
-5.4585
-2.0726
1.11854
4.17815
7.14933
10
39.5056
39.5056
39.4088
39.4929
39.6247
39.6247
0
0
0
-165.766
-165.766
-168.023
-171.49
-173.991
-172.532
-163.488
-147.837
-128.934
-109.561
-91.4478
-75.0082
-60.8463
-48.8779
-38.9678
-30.8236
-24.1124
-18.5116
-13.7405
-9.56967
-5.82144
-2.36396
0.89723
4.02797
7.07454
10
37.3096
37.3096
37.2187
37.3525
37.5605
37.5605
0
0
0
-169.607
-169.607
-172.899
-178.135
-182.608
-181.96
-171.214
-153.609
-133.087
-112.406
-93.2528
-76.3625
-61.9618
-49.9103
-39.9416
-31.7259
-24.9257
-19.2266
-14.356
-10.0895
-6.25091
-2.70795
0.635385
3.84689
6.97498
10
33.5433
33.5433
33.3664
33.3761
33.5024
33.5024
0
0
0
-169.304
-169.304
-173.569
-180.508
-187.088
-185.777
-173.194
-154.251
-132.95
-112.05
-93.0218
-76.4266
-62.3189
-50.4957
-40.6593
-32.4871
-25.6654
-19.905
-14.9536
-10.5996
-6.67376
-3.04642
0.378083
3.66822
6.87351
10
28.0141
28.0141
27.5258
26.885
26.2293
26.2293
0
0
0
-165.216
-165.216
-170.218
-178.458
-184.963
-179.219
-165.712
-147.397
-127.459
-108.098
-90.4699
-75.0063
-61.7303
-50.4692
-40.9755
-32.9823
-26.2273
-20.4632
-15.4681
-11.0505
-7.05309
-3.35227
0.1448
3.50564
6.77974
10
21.0211
21.0211
19.8382
17.3149
12.7913
12.7913
-55.5986
-78.9311
-101.351
-165.488
-165.488
-165.788
-170.401
-169.847
-162.998
-150.825
-135.296
-118.463
-101.871
-86.4396
-72.5955
-60.4497
-49.939
-40.916
-33.1953
-26.5784
-20.865
-15.8671
-11.4161
-7.36914
-3.61142
-0.0548844
3.3655
6.69799
10
13.6273
13.6273
11.6249
6.39185
-6.32509
-40.6476
-55.5986
-78.9311
-101.351
-153.858
-150.289
-151.514
-152.906
-150.765
-144.869
-135.265
-122.994
-109.361
-95.5018
-82.2035
-69.9282
-58.8868
-49.126
-40.5931
-33.1776
-26.7369
-21.1121
-16.1452
-11.6889
-7.61504
-3.81844
-0.217048
3.25051
6.63028
10
7.32638
7.32638
5.23186
-0.0013038
-10.7037
-30.1103
-55.5986
-78.9311
-101.351
-117.343
-126.661
-132.498
-135.309
-134.537
-130.297
-122.9
-113.115
-101.892
-90.1227
-78.4975
-67.487
-57.3624
-48.2452
-40.1508
-33.0237
-26.7631
-21.2413
-16.3238
-11.8808
-7.797
-3.97635
-0.343074
3.16015
6.57675
10
2.86344
2.86344
1.10229
-3.11727
-10.9863
-23.8404
-41.477
-60.7309
-79.6952
-96.2855
-108.763
-117.228
-121.823
-122.586
-119.854
-114.104
-106.039
-96.4615
-86.1357
-75.6909
-65.593
-56.1451
-47.5136
-39.7582
-32.8605
-26.7485
-21.3158
-16.4447
-12.0182
-7.93092
-4.09442
-0.438149
3.09169
6.53624
10
0.335699
0.335699
-1.06598
-4.36023
-10.305
-19.8924
-33.6142
-50.1809
-67.7135
-84.1818
-97.7614
-107.591
-113.403
-115.268
-113.57
-108.867
-101.85
-93.2595
-83.7995
-74.0658
-64.5197
-55.4805
-47.1403
-39.5856
-32.8205
-26.7913
-21.405
-16.5545
-12.1308
-8.03489
-4.18307
-0.508052
3.04199
6.50723
10
-0.409797
-0.409797
-1.57646
-4.32138
-9.29271
-17.524
-29.8691
-45.6073
-62.9178
-79.6166
-93.7447
-104.177
-110.504
-112.803
-111.509
-107.217
-100.608
-92.399
-83.2678
-73.7962
-64.4437
-55.5357
-47.275
-39.7598
-33.0055
-26.9682
-21.5629
-16.6883
-12.2396
-8.12031
-4.24786
-0.555232
3.00978
6.48852
10
0.335699
0.335699
-1.06598
-4.36023
-10.305
-19.8924
-33.6142
-50.1809
-67.7135
-84.1818
-97.7614
-107.591
-113.403
-115.268
-113.57
-108.867
-101.85
-93.2595
-83.7995
-74.0658
-64.5197
-55.4805
-47.1403
-39.5856
-32.8205
-26.7913
-21.405
-16.5545
-12.1308
-8.03489
-4.18307
-0.508052
3.04199
6.50723
10
2.86344
2.86344
1.10229
-3.11727
-10.9863
-23.8404
-41.477
-60.7309
-79.6952
-96.2855
-108.763
-117.228
-121.823
-122.586
-119.854
-114.104
-106.039
-96.4615
-86.1357
-75.6909
-65.593
-56.1451
-47.5136
-39.7582
-32.8605
-26.7485
-21.3158
-16.4447
-12.0182
-7.93092
-4.09442
-0.438149
3.09169
6.53624
10
7.32638
7.32638
5.23186
-0.00130521
-10.7037
-30.1103
-55.5986
-78.9311
-101.351
-117.343
-126.661
-132.498
-135.309
-134.537
-130.297
-122.9
-113.115
-101.892
-90.1227
-78.4975
-67.487
-57.3624
-48.2452
-40.1508
-33.0237
-26.7631
-21.2413
-16.3238
-11.8808
-7.797
-3.97635
-0.343074
3.16015
6.57675
10
13.6273
13.6273
11.6249
6.39185
-6.32509
-40.6476
-55.5986
-78.9311
-101.351
-153.858
-150.289
-151.514
-152.906
-150.765
-144.869
-135.265
-122.994
-109.361
-95.5018
-82.2035
-69.9282
-58.8868
-49.126
-40.5931
-33.1776
-26.7369
-21.1121
-16.1452
-11.6889
-7.61504
-3.81844
-0.217049
3.25051
6.63028
10
21.0211
21.0211
19.8382
17.3149
12.7913
12.7913
-55.5986
-78.9311
-101.351
-165.488
-165.488
-165.788
-170.401
-169.847
-162.998
-150.825
-135.296
-118.463
-101.871
-86.4396
-72.5955
-60.4497
-49.939
-40.916
-33.1953
-26.5784
-20.865
-15.8671
-11.4161
-7.36914
-3.61142
-0.0548845
3.3655
6.69799
10
28.0141
28.0141
27.5258
26.885
26.2293
26.2293
0
0
0
-165.216
-165.216
-170.218
-178.458
-184.963
-179.219
-165.712
-147.397
-127.459
-108.098
-90.4699
-75.0063
-61.7303
-50.4692
-40.9755
-32.9823
-26.2273
-20.4632
-15.4681
-11.0505
-7.05309
-3.35227
0.1448
3.50564
6.77974
10
33.5433
33.5433
33.3664
33.3761
33.5024
33.5024
0
0
0
-169.304
-169.304
-173.569
-180.508
-187.088
-185.777
-173.194
-154.251
-132.95
-112.05
-93.0218
-76.4266
-62.3189
-50.4957
-40.6593
-32.4871
-25.6654
-19.905
-14.9536
-10.5996
-6.67376
-3.04642
0.378083
3.66822
6.87351
10
37.3096
37.3096
37.2187
37.3525
37.5605
37.5605
0
0
0
-169.607
-169.607
-172.899
-178.135
-182.608
-181.96
-171.214
-153.609
-133.087
-112.406
-93.2528
-76.3625
-61.9618
-49.9103
-39.9416
-31.7259
-24.9257
-19.2266
-14.356
-10.0895
-6.25091
-2.70795
0.635385
3.84689
6.97498
10
39.5056
39.5056
39.4088
39.4929
39.6247
39.6247
0
0
0
-165.766
-165.766
-168.023
-171.49
-173.991
-172.532
-163.488
-147.837
-128.934
-109.561
-91.4478
-75.0082
-60.8463
-48.8779
-38.9678
-30.8236
-24.1124
-18.5116
-13.7405
-9.56967
-5.82144
-2.36396
0.89723
4.02797
7.07454
10
40.5478
40.5478
40.4149
40.4103
40.4489
40.4489
0
0
0
-160.721
-160.721
-162.056
-163.944
-164.697
-162.3
-154.27
-140.646
-123.711
-105.792
-88.5706
-73.0103
-59.6677
-47.8589
-38.0692
-30.0251
-23.4119
-17.9051
-13.2215
-9.13147
-5.4585
-2.0726
1.11854
4.17815
7.14933
10
40.8927
40.8927
40.7168
40.638
40.6101
40.6101
0
0
0
-158.009
-158.009
-158.793
-159.624
-158.992
-155.449
-147.613
-135.305
-119.858
-103.11
-86.6608
-71.5928
-58.4641
-47.3227
-37.6545
-29.628
-23.0603
-17.6012
-12.9614
-8.91091
-5.27483
-1.92483
1.22965
4.24957
7.17458
10
40.8927
40.8927
40.7168
40.638
40.6101
40.6101
0
0
0
-158.009
-158.009
-158.793
-159.624
-158.992
-155.449
-147.613
-135.305
-119.858
-103.11
-86.6608
-71.5928
-58.4641
-47.3227
-37.6545
-29.628
-23.0603
-17.6012
-12.9614
-8.91091
-5.27483
-1.92483
1.22965
4.24957
7.17458
10

SCALARS  u float
LOOKUP_TABLE default 
0.00966667
0.00665525
0.00726974
0.00910278
0.015415
0.0405565
0
0
0
0.0826692
0.0800227
0.0731878
0.0374549
-0.0356793
-0.0440777
-0.046201
-0.0449609
-0.040912
-0.0348606
-0.0276312
-0.0199341
-0.0123299
-0.0051891
0.00131765
0.00674374
0.0112614
0.0149414
0.0178761
0.0201724
0.0219409
0.023287
0.024306
0.0250787
0.0256505
0.0256505
0.0362799
0.0344454
0.0329035
0.0327136
0.0410572
0.0871014
0
0
0
0.162528
0.143838
0.114656
0.0347823
-0.139608
-0.169058
-0.174855
-0.167767
-0.150249
-0.125587
-0.0968177
-0.0664225
-0.0363289
-0.00792172
0.0174513
0.039322
0.0577464
0.0729024
0.0851052
0.0947478
0.102251
0.108027
0.112451
0.115849
0.11845
0.118903
0.0590422
0.0564615
0.0524647
0.0486593
0.0528797
0.0940565
0
0
0
0.167984
0.153606
0.130005
0.0664574
-0.113769
-0.155372
-0.155695
-0.143062
-0.121681
-0.0951149
-0.0659489
-0.035893
-0.00613217
0.0217218
0.0470519
0.0699114
0.0900084
0.107297
0.121893
0.134015
0.143936
0.15196
0.158388
0.163504
0.167509
0.168359
0.079367
0.075944
0.0698713
0.0626913
0.062429
0.0974044
0
0
0
0.17299
0.165434
0.150919
0.106062
-0.0387178
-0.105131
-0.102447
-0.0879313
-0.0670935
-0.0431325
-0.017978
0.00684399
0.0307739
0.0531445
0.0740854
0.0932579
0.110442
0.125538
0.138558
0.149601
0.15883
0.166447
0.172664
0.177692
0.181683
0.182573
0.0975176
0.0936041
0.0862355
0.0765258
0.0721474
0.099839
0
0
0
0.177925
0.17936
0.177425
0.153992
0.0682865
-0.00345781
-0.0144009
-0.00594063
0.00898089
0.0261488
0.0438891
0.0610345
0.0772494
0.0926042
0.107052
0.120474
0.132742
0.143745
0.153419
0.161762
0.168834
0.174737
0.179601
0.183561
0.18672
0.187425
0.113555
0.109757
0.102353
0.091486
0.0833709
0.101859
0
0
0
0.181731
0.19376
0.206746
0.206673
0.178048
0.13618
0.107748
0.099949
0.102798
0.109644
0.11746
0.12518
0.132544
0.139572
0.146346
0.152902
0.159195
0.165121
0.170563
0.175427
0.179666
0.183279
0.1863
0.188784
0.190772
0.191206
0.127514
0.124792
0.119568
0.110478
0.0997552
0.111597
0
0
0
0.179992
0.211808
0.240043
0.261203
0.267522
0.255919
0.233657
0.21591
0.205821
0.200175
0.196565
0.193904
0.191773
0.190081
0.188887
0.188263
0.188222
0.188684
0.189508
0.190536
0.191628
0.192684
0.193643
0.194473
0.195149
0.19528
0.139418
0.138976
0.139293
0.138563
0.135832
0.205125
0.208878
0.234093
0.283083
0.393973
0.385406
0.384562
0.387336
0.381797
0.365181
0.342897
0.320465
0.300828
0.28439
0.270532
0.258559
0.247972
0.238524
0.230174
0.222989
0.217033
0.212284
0.208624
0.20587
0.203827
0.202317
0.201196
0.200353
0.199702
0.19953
0.149245
0.151634
0.159626
0.173698
0.198599
0.249169
0.287681
0.321975
0.381833
0.429176
0.42939
0.433976
0.436698
0.432676
0.421411
0.404706
0.385188
0.365047
0.345578
0.327291
0.310239
0.294321
0.279484
0.265812
0.253493
0.242721
0.233593
0.226067
0.219992
0.215151
0.211324
0.208306
0.205927
0.204051
0.203604
0.156903
0.161046
0.17379
0.196486
0.232531
0.280449
0.323518
0.361524
0.403243
0.43582
0.450486
0.460401
0.465193
0.463649
0.45588
0.442901
0.426261
0.407496
0.387808
0.367965
0.348393
0.329332
0.310993
0.293655
0.277666
0.263353
0.250926
0.240428
0.231746
0.224674
0.21897
0.214395
0.210739
0.207834
0.207157
0.162345
0.166843
0.180463
0.204883
0.241638
0.288436
0.33522
0.377153
0.414619
0.444652
0.465368
0.478783
0.485594
0.485856
0.479972
0.468886
0.45378
0.435858
0.416162
0.395491
0.374421
0.35339
0.332799
0.313081
0.294697
0.278059
0.263442
0.250936
0.240458
0.231815
0.224763
0.21905
0.214446
0.210766
0.209914
0.165584
0.16968
0.181977
0.204293
0.23781
0.281103
0.328117
0.373098
0.412937
0.445399
0.469486
0.485535
0.494115
0.495805
0.49131
0.481573
0.467633
0.450521
0.43117
0.410362
0.388731
0.36682
0.345145
0.324237
0.304627
0.286771
0.270974
0.25735
0.245843
0.236273
0.228408
0.221996
0.2168
0.212631
0.211667
0.166652
0.170377
0.181499
0.201841
0.232769
0.273638
0.319954
0.365971
0.407456
0.441712
0.467554
0.484988
0.494547
0.497012
0.493274
0.484291
0.47105
0.454518
0.435576
0.414978
0.393367
0.371311
0.349363
0.328098
0.308081
0.2898
0.273582
0.25956
0.247686
0.237792
0.229645
0.222993
0.217595
0.213257
0.212254
0.165584
0.16968
0.181977
0.204293
0.23781
0.281103
0.328117
0.373098
0.412937
0.445399
0.469486
0.485535
0.494115
0.495805
0.49131
0.481573
0.467633
0.450521
0.43117
0.410362
0.388731
0.36682
0.345145
0.324237
0.304627
0.286771
0.270974
0.25735
0.245843
0.236273
0.228408
0.221996
0.2168
0.212631
0.211667
0.162345
0.166843
0.180463
0.204883
0.241638
0.288436
0.33522
0.377153
0.414619
0.444652
0.465368
0.478783
0.485594
0.485856
0.479972
0.468886
0.45378
0.435858
0.416162
0.395491
0.374421
0.35339
0.332799
0.313081
0.294697
0.278059
0.263442
0.250936
0.240458
0.231815
0.224763
0.21905
0.214446
0.210766
0.209914
0.156903
0.161046
0.17379
0.196486
0.232531
0.280449
0.323518
0.361524
0.403243
0.43582
0.450486
0.460401
0.465193
0.463649
0.45588
0.442901
0.426261
0.407496
0.387808
0.367965
0.348393
0.329332
0.310993
0.293655
0.277666
0.263353
0.250926
0.240428
0.231746
0.224674
0.21897
0.214395
0.210739
0.207834
0.207157
0.149245
0.151634
0.159626
0.173698
0.198599
0.249169
0.287681
0.321975
0.381833
0.429176
0.42939
0.433976
0.436698
0.432676
0.421411
0.404706
0.385188
0.365047
0.345578
0.327291
0.310239
0.294321
0.279484
0.265812
0.253493
0.242721
0.233593
0.226067