# vtk DataFile Version 3.0
vtk output288
ASCII
DATASET STRUCTURED_GRID
DIMENSIONS 36 26 1
POINTS 936 float
0 0 0
0.171429 0 0
0.342857 0 0
0.514286 0 0
0.685714 0 0
0.857143 0 0
1.02857 0 0
1.2 0 0
1.37143 0 0
1.54286 0 0
1.71429 0 0
1.88571 0 0
2.05714 0 0
2.22857 0 0
2.4 0 0
2.57143 0 0
2.74286 0 0
2.91429 0 0
3.08571 0 0
3.25714 0 0
3.42857 0 0
3.6 0 0
3.77143 0 0
3.94286 0 0
4.11429 0 0
4.28571 0 0
4.45714 0 0
4.62857 0 0
4.8 0 0
4.97143 0 0
5.14286 0 0
5.31429 0 0
5.48571 0 0
5.65714 0 0
5.82857 0 0
6 0 0
0 0.2 0
0.171429 0.2 0
0.342857 0.2 0
0.514286 0.2 0
0.685714 0.2 0
0.857143 0.2 0
1.02857 0.2 0
1.2 0.2 0
1.37143 0.2 0
1.54286 0.2 0
1.71429 0.2 0
1.88571 0.2 0
2.05714 0.2 0
2.22857 0.2 0
2.4 0.2 0
2.57143 0.2 0
2.74286 0.2 0
2.91429 0.2 0
3.08571 0.2 0
3.25714 0.2 0
3.42857 0.2 0
3.6 0.2 0
3.77143 0.2 0
3.94286 0.2 0
4.11429 0.2 0
4.28571 0.2 0
4.45714 0.2 0
4.62857 0.2 0
4.8 0.2 0
4.97143 0.2 0
5.14286 0.2 0
5.31429 0.2 0
5.48571 0.2 0
5.65714 0.2 0
5.82857 0.2 0
6 0.2 0
0 0.4 0
0.171429 0.4 0
0.342857 0.4 0
0.514286 0.4 0
0.685714 0.4 0
0.857143 0.4 0
1.02857 0.4 0
1.2 0.4 0
1.37143 0.4 0
1.54286 0.4 0
1.71429 0.4 0
1.88571 0.4 0
2.05714 0.4 0
2.22857 0.4 0
2.4 0.4 0
2.57143 0.4 0
2.74286 0.4 0
2.91429 0.4 0
3.08571 0.4 0
3.25714 0.4 0
3.42857 0.4 0
3.6 0.4 0
3.77143 0.4 0
3.94286 0.4 0
4.11429 0.4 0
4.28571 0.4 0
4.45714 0.4 0
4.62857 0.4 0
4.8 0.4 0
4.97143 0.4 0
5.14286 0.4 0
5.31429 0.4 0
5.48571 0.4 0
5.65714 0.4 0
5.82857 0.4 0
6 0.4 0
0 0.6 0
0.171429 0.6 0
0.342857 0.6 0
0.514286 0.6 0
0.685714 0.6 0
0.857143 0.6 0
1.02857 0.6 0
1.2 0.6 0
1.37143 0.6 0
1.54286 0.6 0
1.71429 0.6 0
1.88571 0.6 0
2.05714 0.6 0
2.22857 0.6 0
2.4 0.6 0
2.57143 0.6 0
2.74286 0.6 0
2.91429 0.6 0
3.08571 0.6 0
3.25714 0.6 0
3.42857 0.6 0
3.6 0.6 0
3.77143 0.6 0
3.94286 0.6 0
4.11429 0.6 0
4.28571 0.6 0
4.45714 0.6 0
4.62857 0.6 0
4.8 0.6 0
4.97143 0.6 0
5.14286 0.6 0
5.31429 0.6 0
5.48571 0.6 0
5.65714 0.6 0
5.82857 0.6 0
6 0.6 0
0 0.8 0
0.171429 0.8 0
0.342857 0.8 0
0.514286 0.8 0
0.685714 0.8 0
0.857143 0.8 0
1.02857 0.8 0
1.2 0.8 0
1.37143 0.8 0
1.54286 0.8 0
1.71429 0.8 0
1.88571 0.8 0
2.05714 0.8 0
2.22857 0.8 0
2.4 0.8 0
2.57143 0.8 0
2.74286 0.8 0
2.91429 0.8 0
3.08571 0.8 0
3.25714 0.8 0
3.42857 0.8 0
3.6 0.8 0
3.77143 0.8 0
3.94286 0.8 0
4.11429 0.8 0
4.28571 0.8 0
4.45714 0.8 0
4.62857 0.8 0
4.8 0.8 0
4.97143 0.8 0
5.14286 0.8 0
5.31429 0.8 0
5.48571 0.8 0
5.65714 0.8 0
5.82857 0.8 0
6 0.8 0
0 1 0
0.171429 1 0
0.342857 1 0
0.514286 1 0
0.685714 1 0
0.857143 1 0
1.02857 1 0
1.2 1 0
1.37143 1 0
1.54286 1 0
1.71429 1 0
1.88571 1 0
2.05714 1 0
2.22857 1 0
2.4 1 0
2.57143 1 0
2.74286 1 0
2.91429 1 0
3.08571 1 0
3.25714 1 0
3.42857 1 0
3.6 1 0
3.77143 1 0
3.94286 1 0
4.11429 1 0
4.28571 1 0
4.45714 1 0
4.62857 1 0
4.8 1 0
4.97143 1 0
5.14286 1 0
5.31429 1 0
5.48571 1 0
5.65714 1 0
5.82857 1 0
6 1 0
0 1.2 0
0.171429 1.2 0
0.342857 1.2 0
0.514286 1.2 0
0.685714 1.2 0
0.857143 1.2 0
1.02857 1.2 0
1.2 1.2 0
1.37143 1.2 0
1.54286 1.2 0
1.71429 1.2 0
1.88571 1.2 0
2.05714 1.2 0
2.22857 1.2 0
2.4 1.2 0
2.57143 1.2 0
2.74286 1.2 0
2.91429 1.2 0
3.08571 1.2 0
3.25714 1.2 0
3.42857 1.2 0
3.6 1.2 0
3.77143 1.2 0
3.94286 1.2 0
4.11429 1.2 0
4.28571 1.2 0
4.45714 1.2 0
4.62857 1.2 0
4.8 1.2 0
4.97143 1.2 0
5.14286 1.2 0
5.31429 1.2 0
5.48571 1.2 0
5.65714 1.2 0
5.82857 1.2 0
6 1.2 0
0 1.4 0
0.171429 1.4 0
0.342857 1.4 0
0.514286 1.4 0
0.685714 1.4 0
0.857143 1.4 0
1.02857 1.4 0
1.2 1.4 0
1.37143 1.4 0
1.54286 1.4 0
1.71429 1.4 0
1.88571 1.4 0
2.05714 1.4 0
2.22857 1.4 0
2.4 1.4 0
2.57143 1.4 0
2.74286 1.4 0
2.91429 1.4 0
3.08571 1.4 0
3.25714 1.4 0
3.42857 1.4 0
3.6 1.4 0
3.77143 1.4 0
3.94286 1.4 0
4.11429 1.4 0
4.28571 1.4 0
4.45714 1.4 0
4.62857 1.4 0
4.8 1.4 0
4.97143 1.4 0
5.14286 1.4 0
5.31429 1.4 0
5.48571 1.4 0
5.65714 1.4 0
5.82857 1.4 0
6 1.4 0
0 1.6 0
0.171429 1.6 0
0.342857 1.6 0
0.514286 1.6 0
0.685714 1.6 0
0.857143 1.6 0
1.02857 1.6 0
1.2 1.6 0
1.37143 1.6 0
1.54286 1.6 0
1.71429 1.6 0
1.88571 1.6 0
2.05714 1.6 0
2.22857 1.6 0
2.4 1.6 0
2.57143 1.6 0
2.74286 1.6 0
2.91429 1.6 0
3.08571 1.6 0
3.25714 1.6 0
3.42857 1.6 0
3.6 1.6 0
3.77143 1.6 0
3.94286 1.6 0
4.11429 1.6 0
4.28571 1.6 0
4.45714 1.6 0
4.62857 1.6 0
4.8 1.6 0
4.97143 1.6 0
5.14286 1.6 0
5.31429 1.6 0
5.48571 1.6 0
5.65714 1.6 0
5.82857 1.6 0
6 1.6 0
0 1.8 0
0.171429 1.8 0
0.342857 1.8 0
0.514286 1.8 0
0.685714 1.8 0
0.857143 1.8 0
1.02857 1.8 0
1.2 1.8 0
1.37143 1.8 0
1.54286 1.8 0
1.71429 1.8 0
1.88571 1.8 0
2.05714 1.8 0
2.22857 1.8 0
2.4 1.8 0
2.57143 1.8 0
2.74286 1.8 0
2.91429 1.8 0
3.08571 1.8 0
3.25714 1.8 0
3.42857 1.8 0
3.6 1.8 0
3.77143 1.8 0
3.94286 1.8 0
4.11429 1.8 0
4.28571 1.8 0
4.45714 1.8 0
4.62857 1.8 0
4.8 1.8 0
4.97143 1.8 0
5.14286 1.8 0
5.31429 1.8 0
5.48571 1.8 0
5.65714 1.8 0
5.82857 1.8 0
6 1.8 0
0 2 0
0.171429 2 0
0.342857 2 0
0.514286 2 0
0.685714 2 0
0.857143 2 0
1.02857 2 0
1.2 2 0
1.37143 2 0
1.54286 2 0
1.71429 2 0
1.88571 2 0
2.05714 2 0
2.22857 2 0
2.4 2 0
2.57143 2 0
2.74286 2 0
2.91429 2 0
3.08571 2 0
3.25714 2 0
3.42857 2 0
3.6 2 0
3.77143 2 0
3.94286 2 0
4.11429 2 0
4.28571 2 0
4.45714 2 0
4.62857 2 0
4.8 2 0
4.97143 2 0
5.14286 2 0
5.31429 2 0
5.48571 2 0
5.65714 2 0
5.82857 2 0
6 2 0
0 2.2 0
0.171429 2.2 0
0.342857 2.2 0
0.514286 2.2 0
0.685714 2.2 0
0.857143 2.2 0
1.02857 2.2 0
1.2 2.2 0
1.37143 2.2 0
1.54286 2.2 0
1.71429 2.2 0
1.88571 2.2 0
2.05714 2.2 0
2.22857 2.2 0
2.4 2.2 0
2.57143 2.2 0
2.74286 2.2 0
2.91429 2.2 0
3.08571 2.2 0
3.25714 2.2 0
3.42857 2.2 0
3.6 2.2 0
3.77143 2.2 0
3.94286 2.2 0
4.11429 2.2 0
4.28571 2.2 0
4.45714 2.2 0
4.62857 2.2 0
4.8 2.2 0
4.97143 2.2 0
5.14286 2.2 0
5.31429 2.2 0
5.48571 2.2 0
5.65714 2.2 0
5.82857 2.2 0
6 2.2 0
0 2.4 0
0.171429 2.4 0
0.342857 2.4 0
0.514286 2.4 0
0.685714 2.4 0
0.857143 2.4 0
1.02857 2.4 0
1.2 2.4 0
1.37143 2.4 0
1.54286 2.4 0
1.71429 2.4 0
1.88571 2.4 0
2.05714 2.4 0
2.22857 2.4 0
2.4 2.4 0
2.57143 2.4 0
2.74286 2.4 0
2.91429 2.4 0
3.08571 2.4 0
3.25714 2.4 0
3.42857 2.4 0
3.6 2.4 0
3.77143 2.4 0
3.94286 2.4 0
4.11429 2.4 0
4.28571 2.4 0
4.45714 2.4 0
4.62857 2.4 0
4.8 2.4 0
4.97143 2.4 0
5.14286 2.4 0
5.31429 2.4 0
5.48571 2.4 0
5.65714 2.4 0
5.82857 2.4 0
6 2.4 0
0 2.6 0
0.171429 2.6 0
0.342857 2.6 0
0.514286 2.6 0
0.685714 2.6 0
0.857143 2.6 0
1.02857 2.6 0
1.2 2.6 0
1.37143 2.6 0
1.54286 2.6 0
1.71429 2.6 0
1.88571 2.6 0
2.05714 2.6 0
2.22857 2.6 0
2.4 2.6 0
2.57143 2.6 0
2.74286 2.6 0
2.91429 2.6 0
3.08571 2.6 0
3.25714 2.6 0
3.42857 2.6 0
3.6 2.6 0
3.77143 2.6 0
3.94286 2.6 0
4.11429 2.6 0
4.28571 2.6 0
4.45714 2.6 0
4.62857 2.6 0
4.8 2.6 0
4.97143 2.6 0
5.14286 2.6 0
5.31429 2.6 0
5.48571 2.6 0
5.65714 2.6 0
5.82857 2.6 0
6 2.6 0
0 2.8 0
0.171429 2.8 0
0.342857 2.8 0
0.514286 2.8 0
0.685714 2.8 0
0.857143 2.8 0
1.02857 2.8 0
1.2 2.8 0
1.37143 2.8 0
1.54286 2.8 0
1.71429 2.8 0
1.88571 2.8 0
2.05714 2.8 0
2.22857 2.8 0
2.4 2.8 0
2.57143 2.8 0
2.74286 2.8 0
2.91429 2.8 0
3.08571 2.8 0
3.25714 2.8 0
3.42857 2.8 0
3.6 2.8 0
3.77143 2.8 0
3.94286 2.8 0
4.11429 2.8 0
4.28571 2.8 0
4.45714 2.8 0
4.62857 2.8 0
4.8 2.8 0
4.97143 2.8 0
5.14286 2.8 0
5.31429 2.8 0
5.48571 2.8 0
5.65714 2.8 0
5.82857 2.8 0
6 2.8 0
0 3 0
0.171429 3 0
0.342857 3 0
0.514286 3 0
0.685714 3 0
0.857143 3 0
1.02857 3 0
1.2 3 0
1.37143 3 0
1.54286 3 0
1.71429 3 0
1.88571 3 0
2.05714 3 0
2.22857 3 0
2.4 3 0
2.57143 3 0
2.74286 3 0
2.91429 3 0
3.08571 3 0
3.25714 3 0
3.42857 3 0
3.6 3 0
3.77143 3 0
3.94286 3 0
4.11429 3 0
4.28571 3 0
4.45714 3 0
4.62857 3 0
4.8 3 0
4.97143 3 0
5.14286 3 0
5.31429 3 0
5.48571 3 0
5.65714 3 0
5.82857 3 0
6 3 0
0 3.2 0
0.171429 3.2 0
0.342857 3.2 0
0.514286 3.2 0
0.685714 3.2 0
0.857143 3.2 0
1.02857 3.2 0
1.2 3.2 0
1.37143 3.2 0
1.54286 3.2 0
1.71429 3.2 0
1.88571 3.2 0
2.05714 3.2 0
2.22857 3.2 0
2.4 3.2 0
2.57143 3.2 0
2.74286 3.2 0
2.91429 3.2 0
3.08571 3.2 0
3.25714 3.2 0
3.42857 3.2 0
3.6 3.2 0
3.77143 3.2 0
3.94286 3.2 0
4.11429 3.2 0
4.28571 3.2 0
4.45714 3.2 0
4.62857 3.2 0
4.8 3.2 0
4.97143 3.2 0
5.14286 3.2 0
5.31429 3.2 0
5.48571 3.2 0
5.65714 3.2 0
5.82857 3.2 0
6 3.2 0
0 3.4 0
0.171429 3.4 0
0.342857 3.4 0
0.514286 3.4 0
0.685714 3.4 0
0.857143 3.4 0
1.02857 3.4 0
1.2 3.4 0
1.37143 3.4 0
1.54286 3.4 0
1.71429 3.4 0
1.88571 3.4 0
2.05714 3.4 0
2.22857 3.4 0
2.4 3.4 0
2.57143 3.4 0
2.74286 3.4 0
2.91429 3.4 0
3.08571 3.4 0
3.25714 3.4 0
3.42857 3.4 0
3.6 3.4 0
3.77143 3.4 0
3.94286 3.4 0
4.11429 3.4 0
4.28571 3.4 0
4.45714 3.4 0
4.62857 3.4 0
4.8 3.4 0
4.97143 3.4 0
5.14286 3.4 0
5.31429 3.4 0
5.48571 3.4 0
5.65714 3.4 0
5.82857 3.4 0
6 3.4 0
0 3.6 0
0.171429 3.6 0
0.342857 3.6 0
0.514286 3.6 0
0.685714 3.6 0
0.857143 3.6 0
1.02857 3.6 0
1.2 3.6 0
1.37143 3.6 0
1.54286 3.6 0
1.71429 3.6 0
1.88571 3.6 0
2.05714 3.6 0
2.22857 3.6 0
2.4 3.6 0
2.57143 3.6 0
2.74286 3.6 0
2.91429 3.6 0
3.08571 3.6 0
3.25714 3.6 0
3.42857 3.6 0
3.6 3.6 0
3.77143 3.6 0
3.94286 3.6 0
4.11429 3.6 0
4.28571 3.6 0
4.45714 3.6 0
4.62857 3.6 0
4.8 3.6 0
4.97143 3.6 0
5.14286 3.6 0
5.31429 3.6 0
5.48571 3.6 0
5.65714 3.6 0
5.82857 3.6 0
6 3.6 0
0 3.8 0
0.171429 3.8 0
0.342857 3.8 0
0.514286 3.8 0
0.685714 3.8 0
0.857143 3.8 0
1.02857 3.8 0
1.2 3.8 0
1.37143 3.8 0
1.54286 3.8 0
1.71429 3.8 0
1.88571 3.8 0
2.05714 3.8 0
2.22857 3.8 0
2.4 3.8 0
2.57143 3.8 0
2.74286 3.8 0
2.91429 3.8 0
3.08571 3.8 0
3.25714 3.8 0
3.42857 3.8 0
3.6 3.8 0
3.77143 3.8 0
3.94286 3.8 0
4.11429 3.8 0
4.28571 3.8 0
4.45714 3.8 0
4.62857 3.8 0
4.8 3.8 0
4.97143 3.8 0
5.14286 3.8 0
5.31429 3.8 0
5.48571 3.8 0
5.65714 3.8 0
5.82857 3.8 0
6 3.8 0
0 4 0
0.171429 4 0
0.342857 4 0
0.514286 4 0
0.685714 4 0
0.857143 4 0
1.02857 4 0
1.2 4 0
1.37143 4 0
1.54286 4 0
1.71429 4 0
1.88571 4 0
2.05714 4 0
2.22857 4 0
2.4 4 0
2.57143 4 0
2.74286 4 0
2.91429 4 0
3.08571 4 0
3.25714 4 0
3.42857 4 0
3.6 4 0
3.77143 4 0
3.94286 4 0
4.11429 4 0
4.28571 4 0
4.45714 4 0
4.62857 4 0
4.8 4 0
4.97143 4 0
5.14286 4 0
5.31429 4 0
5.48571 4 0
5.65714 4 0
5.82857 4 0
6 4 0
0 4.2 0
0.171429 4.2 0
0.342857 4.2 0
0.514286 4.2 0
0.685714 4.2 0
0.857143 4.2 0
1.02857 4.2 0
1.2 4.2 0
1.37143 4.2 0
1.54286 4.2 0
1.71429 4.2 0
1.88571 4.2 0
2.05714 4.2 0
2.22857 4.2 0
2.4 4.2 0
2.57143 4.2 0
2.74286 4.2 0
2.91429 4.2 0
3.08571 4.2 0
3.25714 4.2 0
3.42857 4.2 0
3.6 4.2 0
3.77143 4.2 0
3.94286 4.2 0
4.11429 4.2 0
4.28571 4.2 0
4.45714 4.2 0
4.62857 4.2 0
4.8 4.2 0
4.97143 4.2 0
5.14286 4.2 0
5.31429 4.2 0
5.48571 4.2 0
5.65714 4.2 0
5.82857 4.2 0
6 4.2 0
0 4.4 0
0.171429 4.4 0
0.342857 4.4 0
0.514286 4.4 0
0.685714 4.4 0
0.857143 4.4 0
1.02857 4.4 0
1.2 4.4 0
1.37143 4.4 0
1.54286 4.4 0
1.71429 4.4 0
1.88571 4.4 0
2.05714 4.4 0
2.22857 4.4 0
2.4 4.4 0
2.57143 4.4 0
2.74286 4.4 0
2.91429 4.4 0
3.08571 4.4 0
3.25714 4.4 0
3.42857 4.4 0
3.6 4.4 0
3.77143 4.4 0
3.94286 4.4 0
4.11429 4.4 0
4.28571 4.4 0
4.45714 4.4 0
4.62857 4.4 0
4.8 4.4 0
4.97143 4.4 0
5.14286 4.4 0
5.31429 4.4 0
5.48571 4.4 0
5.65714 4.4 0
5.82857 4.4 0
6 4.4 0
0 4.6 0
0.171429 4.6 0
0.342857 4.6 0
0.514286 4.6 0
0.685714 4.6 0
0.857143 4.6 0
1.02857 4.6 0
1.2 4.6 0
1.37143 4.6 0
1.54286 4.6 0
1.71429 4.6 0
1.88571 4.6 0
2.05714 4.6 0
2.22857 4.6 0
2.4 4.6 0
2.57143 4.6 0
2.74286 4.6 0
2.91429 4.6 0
3.08571 4.6 0
3.25714 4.6 0
3.42857 4.6 0
3.6 4.6 0
3.77143 4.6 0
3.94286 4.6 0
4.11429 4.6 0
4.28571 4.6 0
4.45714 4.6 0
4.62857 4.6 0
4.8 4.6 0
4.97143 4.6 0
5.14286 4.6 0
5.31429 4.6 0
5.48571 4.6 0
5.65714 4.6 0
5.82857 4.6 0
6 4.6 0
0 4.8 0
0.171429 4.8 0
0.342857 4.8 0
0.514286 4.8 0
0.685714 4.8 0
0.857143 4.8 0
1.02857 4.8 0
1.2 4.8 0
1.37143 4.8 0
1.54286 4.8 0
1.71429 4.8 0
1.88571 4.8 0
2.05714 4.8 0
2.22857 4.8 0
2.4 4.8 0
2.57143 4.8 0
2.74286 4.8 0
2.91429 4.8 0
3.08571 4.8 0
3.25714 4.8 0
3.42857 4.8 0
3.6 4.8 0
3.77143 4.8 0
3.94286 4.8 0
4.11429 4.8 0
4.28571 4.8 0
4.45714 4.8 0
4.62857 4.8 0
4.8 4.8 0
4.97143 4.8 0
5.14286 4.8 0
5.31429 4.8 0
5.48571 4.8 0
5.65714 4.8 0
5.82857 4.8 0
6 4.8 0
0 5 0
0.171429 5 0
0.342857 5 0
0.514286 5 0
0.685714 5 0
0.857143 5 0
1.02857 5 0
1.2 5 0
1.37143 5 0
1.54286 5 0
1.71429 5 0
1.88571 5 0
2.05714 5 0
2.22857 5 0
2.4 5 0
2.57143 5 0
2.74286 5 0
2.91429 5 0
3.08571 5 0
3.25714 5 0
3.42857 5 0
3.6 5 0
3.77143 5 0
3.94286 5 0
4.11429 5 0
4.28571 5 0
4.45714 5 0
4.62857 5 0
4.8 5 0
4.97143 5 0
5.14286 5 0
5.31429 5 0
5.48571 5 0
5.65714 5 0
5.82857 5 0
6 5 0

CELL_DATA 875
SCALARS phi float
LOOKUP_TABLE default 
4.711
4.711
4.711
4.711
4.711
4.711
4.711
4.711
4.711
4.711
4.711
4.711
4.711
4.711
4.711
4.711
4.711
4.711
4.711
4.711
4.711
4.711
4.711
4.711
4.711
4.711
4.711
4.711
4.711
4.711
4.711
4.711
4.711
4.711
4.711
4.711
4.711
4.711
4.711
4.711
4.711
4.711
4.711
4.711
4.711
4.711
4.711
4.711
4.711
4.711
4.711
4.711
4.711
4.711
4.711
4.711
4.711
4.711
4.711
4.711
4.711
4.711
4.711
4.711
4.711
4.711
4.711
4.711
4.711
4.711
4.711
4.711
4.711
4.711
4.711
4.711
4.711
4.711
4.711
4.711
4.711
4.711
4.711
4.711
4.711
4.711
4.711
4.711
4.711
4.711
4.711
4.711
4.711
4.711
4.711
4.711
4.711
4.711
4.711
4.711
4.711
4.711
4.711
4.711
4.711
4.711
4.711
4.711
4.711
4.711
4.711
4.711
4.711
4.711
4.711
4.711
4.711
4.711
4.711
4.711
4.711
4.711
4.711
4.711
4.711
4.711
4.711
4.711
4.711
4.711
4.711
4.711
4.711
4.711
4.711
4.711
4.711
4.711
4.711
4.711
4.711
4.711
4.711
4.711
4.711
4.711
4.711
4.711
4.711
4.711
4.711
4.711
4.711
4.711
4.711
4.711
4.711
4.711
4.711
4.711
4.711
4.711
4.711
4.711
4.711
4.711
4.711
4.711
4.711
4.711
4.711
4.711
4.711
4.711
4.711
4.711
4.711
4.711
4.711
4.711
4.711
4.711
4.711
4.711
4.711
4.711
4.711
4.711
4.711
4.711
4.711
4.711
4.711
4.711
4.711
4.711
4.711
4.711
4.711
4.711
4.711
4.711
4.711
4.711
4.711
4.711
4.711
4.711
4.711
4.711
4.711
4.711
4.711
4.711
4.711
4.711
4.711
4.711
4.711
4.711
4.711
4.711
4.711
4.711
4.711
4.711
4.711
4.711
4.711
4.711
4.711
4.711
4.711
4.711
4.711
4.711
4.711
4.711
4.711
4.711
4.711
4.711
4.711
4.711
4.711
4.711
4.711
4.711
4.711
4.711
4.711
4.711
4.711
4.711
4.711
4.711
4.711
4.711
4.711
4.711
4.711
4.711
4.711
4.711
4.711
4.711
4.711
4.711
4.711
4.711
4.711
4.711
4.711
4.711
4.711
4.711
4.711
4.711
4.711
4.711
4.711
4.711
4.711
4.711
4.711
4.711
4.711
4.711
4.711
4.711
4.711
4.711
4.711
4.711
4.711
4.711
4.711
4.711
4.711
4.711
4.711
4.711
4.711
4.711
4.711
4.711
4.711
4.711
4.711
4.711
4.711
4.711
4.711
4.711
4.711
4.711
4.711
4.711
4.711
4.711
4.711
4.711
4.711
4.711
4.711
4.711
4.711
4.711
4.711
4.711
4.711
4.711
4.711
4.711
4.711
4.711
4.711
4.711
4.711
4.711
4.711
4.711
4.711
4.711
4.711
4.711
4.711
4.711
4.711
4.711
4.711
4.711
4.711
4.711
4.711
4.711
4.711
4.711
4.711
4.711
4.711
4.711
4.711
4.711
4.711
4.711
4.711
4.711
4.711
4.711
4.711
4.711
4.711
4.711
4.711
4.711
4.711
4.711
4.711
4.711
4.711
4.711
4.711
4.711
4.711
4.711
4.711
4.711
4.711
4.711
4.711
4.711
4.711
4.711
4.711
4.711
4.711
4.711
4.711
4.711
4.711
4.711
4.711
4.711
4.711
4.711
4.711
4.711
4.711
4.711
4.711
4.711
4.711
4.711
4.711
4.711
4.711
4.711
4.711
4.711
4.711
4.711
4.711
4.711
4.711
4.711
4.711
4.711
4.711
4.711
4.711
4.711
4.711
4.711
4.711
4.711
4.711
4.711
4.711
4.711
4.711
4.711
4.711
4.711
4.711
4.711
4.711
4.711
4.711
4.711
4.711
4.711
4.711
4.711
4.711
4.711
4.711
4.711
4.711
4.711
4.711
4.711
4.711
4.711
4.711
4.711
4.711
4.711
4.711
4.711
4.711
4.711
4.711
4.711
4.711
4.711
4.711
4.711
4.711
4.711
4.711
4.711
4.711
4.711
4.711
4.711
4.711
4.711
4.711
4.711
4.711
4.711
4.711
4.711
4.711
4.711
4.711
4.711
4.711
4.711
4.711
4.711
4.711
4.711
4.711
4.711
4.711
4.711
4.711
4.711
4.711
4.711
4.711
4.711
4.711
4.711
4.711
4.711
4.711
4.711
4.711
4.711
4.711
4.711
4.711
4.711
4.711
4.711
4.711
4.711
4.711
4.711
4.711
4.711
4.711
4.711
4.711
4.711
4.711
4.711
4.711
4.711
4.711
4.711
4.711
4.711
4.711
4.711
4.711
4.711
4.711
4.711
4.711
4.711
4.711
4.711
4.711
4.711
4.711
4.711
4.711
4.711
4.711
4.711
4.711
4.711
4.711
4.711
4.711
4.711
4.711
4.711
4.711
4.711
4.711
4.711
4.711
4.711
4.711
4.711
4.711
4.711
4.711
4.711
4.711
4.711
4.711
4.711
4.711
4.711
4.711
4.711
4.711
4.711
4.711
4.711
4.711
4.711
4.711
4.711
4.711
4.711
4.711
4.711
4.711
4.711
4.711
4.711
4.711
4.711
4.711
4.711
4.711
4.711
4.711
4.711
4.711
4.711
4.711
4.711
4.711
4.711
4.711
4.711
4.711
4.711
4.711
4.711
4.711
4.711
4.711
4.711
4.711
4.711
4.711
4.711
4.711
4.711
4.711
4.711
4.711
4.711
4.711
4.711
4.711
4.711
4.711
4.711
4.711
4.711
4.711
4.711
4.711
4.711
4.711
4.711
4.711
4.711
4.711
4.711
4.711
4.711
4.711
4.711
4.711
4.711
4.711
4.711
4.711
4.711
4.711
4.711
4.711
4.711
4.711
4.711
4.711
4.711
4.711
4.711
4.711
4.711
4.711
4.711
4.711
4.711
4.711
4.711
4.711
4.711
4.711
4.711
4.711
4.711
4.711
4.711
4.711
4.711
4.711
4.711
4.711
4.711
4.711
4.711
4.711
4.711
4.711
4.711
4.711
4.711
4.711
4.711
4.711
4.711
4.711
4.711
4.711
4.711
4.711
4.711
4.711
4.711
4.711
4.711
4.711
4.711
4.711
4.711
4.711
4.711
4.711
4.711
4.711
4.711
4.711
4.711
4.711
4.711
4.711
4.711
4.711
4.711
4.711
4.711
4.711
4.711
4.711
4.711
4.711
4.711
4.711
4.711
4.711
4.711
4.711
4.711
4.711
4.711
4.711
4.711
4.711
4.711
4.711
4.711
4.711
4.711
4.711
4.711
4.711
4.711
4.711
4.711
4.711
4.711
4.711
4.711
4.711
4.711
4.711
4.711
4.711
4.711
4.711
4.711
4.711
4.711
4.711
4.711
4.711
4.711
4.711
4.711
4.711
4.711
4.711
4.711
4.711
4.711
4.711
4.711
4.711
4.711
4.711
4.711
4.711
4.711
4.711
4.711
4.711
4.711
4.711
4.711
4.711
4.711
4.711
4.711
4.711
4.711
4.711
4.711
4.711
4.711
4.711
4.711
4.711
4.711
4.711
4.711
4.711
4.711
4.711
4.711
4.711
4.711
4.711
4.711
4.711
4.711
4.711
4.711
4.711
4.711
4.711
4.711
4.711
4.711
4.711
4.711
4.711
4.711
4.711
4.711
4.711
4.711
4.711
4.711
4.711
4.711
4.711
4.711
4.711
4.711
4.711
4.711
4.711
4.711
4.711
4.711
4.711
4.711
4.711
4.711
4.711
4.711
4.711

SCALARS p float
LOOKUP_TABLE default 
-1703.77
-1703.77
-1702.9
-1699.09
-1693.03
-1693.03
0
0
0
-5074.19
-5074.19
-5016.35
-4843.83
-4553.72
-4176.71
-3751.83
-3312.76
-2883.73
-2480.21
-2110.91
-1779.82
-1487.73
-1233.36
-1014.11
-826.688
-667.508
-532.903
-419.491
-324.042
-243.665
-175.828
-118.35
-69.3837
-27.3282
10
-1703.77
-1703.77
-1702.9
-1699.09
-1693.03
-1693.03
0
0
0
-5074.19
-5074.19
-5016.35
-4843.83
-4553.72
-4176.71
-3751.83
-3312.76
-2883.73
-2480.21
-2110.91
-1779.82
-1487.73
-1233.36
-1014.11
-826.688
-667.508
-532.903
-419.491
-324.042
-243.665
-175.828
-118.35
-69.3837
-27.3282
10
-1710.4
-1710.4
-1709.2
-1704.71
-1696.74
-1696.74
0
0
0
-5077.75
-5077.75
-5019.56
-4847.22
-4552.41
-4168.87
-3738.96
-3297.4
-2868.08
-2465.78
-2098.51
-1769.8
-1480.12
-1227.96
-1010.65
-824.833
-666.926
-533.305
-420.56
-325.525
-245.359
-177.57
-120.002
-70.807
-28.3481
10
-1728.82
-1728.82
-1727.55
-1722.05
-1711.68
-1711.68
0
0
0
-5099.86
-5099.86
-5008.23
-4807.7
-4498.02
-4110.6
-3683.57
-3248.53
-2827.3
-2433.39
-2074.03
-1752.32
-1468.54
-1221.15
-1007.5
-824.363
-668.294
-535.814
-423.646
-328.757
-248.421
-180.235
-122.11
-72.249
-29.0708
10
-1765.25
-1765.25
-1764.28
-1758.25
-1745.99
-1745.99
0
0
0
-5198.49
-5198.49
-5033.75
-4771.48
-4430.56
-4033.15
-3608.38
-3182.24
-2772.94
-2391.57
-2043.96
-1732.45
-1457.01
-1216.08
-1007.18
-827.291
-673.223
-541.752
-429.833
-334.636
-253.606
-184.477
-125.265
-74.2626
-29.9797
10
-1824.74
-1824.74
-1825.03
-1820.34
-1808.11
-1808.11
0
0
0
-5469.58
-5469.58
-5192.77
-4819.82
-4420.06
-3987.05
-3547.18
-3121.27
-2720.86
-2351.84
-2016.86
-1716.6
-1450.34
-1216.39
-1012.38
-835.613
-683.207
-552.258
-440.008
-343.877
-261.51
-190.805
-129.905
-77.2057
-31.3098
10
-1909.49
-1909.49
-1913.23
-1914.55
-1908.25
-1908.25
0
0
0
-5922.52
-5922.52
-5800.38
-5184.53
-4593.4
-4026.56
-3525.35
-3081.19
-2682.76
-2323.53
-2000.07
-1710.36
-1452.65
-1224.97
-1025.14
-850.727
-699.211
-568.017
-454.687
-356.894
-272.494
-199.546
-136.323
-81.3159
-33.2098
10
-2016.45
-2016.45
-2027.31
-2044.45
-2064.49
-2064.49
-2764.37
-2956.49
-3147.35
-3341.28
-3548.69
-3792.79
-7223.03
-5072.46
-4117.44
-3516.38
-3052.41
-2657.92
-2309.08
-1996.54
-1716.2
-1465.63
-1242.89
-1045.99
-872.84
-721.26
-588.989
-473.828
-373.683
-286.604
-210.808
-144.672
-86.7592
-35.8065
10
-2134.54
-2134.54
-2155.24
-2197.99
-2278.26
-2447.92
-2764.37
-2956.49
-3147.35
-3341.28
-3548.69
-3792.79
-5091.57
-4477.84
-3902.43
-3419.12
-3003.73
-2635.85
-2304.53
-2004.41
-1732.85
-1488.22
-1269.1
-1073.96
-901.07
-748.596
-614.589
-496.996
-393.943
-303.666
-224.55
-155.054
-93.7412
-39.33
10
-2245.81
-2245.81
-2272.41
-2327.28
-2419.91
-2565.1
-2764.37
-2956.49
-3147.35
-3341.28
-3548.69
-3792.79
-4078.56
-3941.28
-3638.03
-3292.16
-2947.3
-2617.9
-2309
-2022.53
-1759.35
-1519.58
-1302.92
-1108.51
-934.935
-780.774
-644.538
-523.916
-417.421
-323.446
-240.364
-166.799
-101.57
-43.3723
10
-2335.37
-2335.37
-2363.85
-2421.44
-2511.91
-2638.32
-2796.29
-2966.33
-3140.97
-3315.38
-3483.92
-3633.68
-3727.73
-3658.65
-3464.96
-3203.75
-2913.83
-2617.92
-2328.91
-2053.98
-1797.1
-1560.15
-1343.47
-1146.83
-969.922
-811.692
-670.537
-545.561
-434.979
-337.188
-250.717
-174.122
-106.026
-45.2076
10
-2394.12
-2394.12
-2422.66
-2479.86
-2566.78
-2683.11
-2824.55
-2981.63
-3145.55
-3306.94
-3453.09
-3563.91
-3608.36
-3550.16
-3396.97
-3175.59
-2914.48
-2636.28
-2356.77
-2086
-1830.05
-1592.25
-1374.19
-1176.17
-997.464
-837.053
-693.6
-565.836
-452.266
-351.399
-261.805
-182.124
-111.099
-47.5907
10
-2417.23
-2417.23
-2445.66
-2502.66
-2588.7
-2703.01
-2841.91
-2998.21
-3163.48
-3327.47
-3475.65
-3586.27
-3629.8
-3578.31
-3434.14
-3219.75
-2962.28
-2684.86
-2404.28
-2131.41
-1872.86
-1632.21
-1411.1
-1209.82
-1027.85
-864.179
-717.516
-586.499
-469.674
-365.591
-272.852
-190.141
-116.254
-50.0823
10
-2402.9
-2402.9
-2432.04
-2490.67
-2580.18
-2700.87
-2849.33
-3017.15
-3196.71
-3379.79
-3554.74
-3702.15
-3782.74
-3740.22
-3583.43
-3348.07
-3069.58
-2774.32
-2479.52
-2195.5
-1928.12
-1680.3
-1453.15
-1246.62
-1059.97
-892.071
-741.513
-606.848
-486.579
-379.235
-283.412
-197.796
-121.192
-52.4943
10
-2351.77
-2351.77
-2381.35
-2441.53
-2536.77
-2671.38
-2842.96
-3034.19
-3240.26
-3459.07
-3686.56
-3915.06
-4111.14
-4070.96
-3861.05
-3564.5
-3235.01
-2901.75
-2579.65
-2275.94
-1994.04
-1735.16
-1499.27
-1285.63
-1093.02
-920.023
-765.01
-626.387
-502.554
-391.97
-293.183
-204.844
-125.734
-54.7238
10
-2267.83
-2267.83
-2295.7
-2353.56
-2451.84
-2607.33
-2824.86
-3046.35
-3282.72
-3544.16
-3841.49
-4224.98
-4790.23
-4662.27
-4290.24
-3864.43
-3447.52
-3057.18
-2697.27
-2367.62
-2067.13
-1794.38
-1547.77
-1325.6
-1126.05
-947.287
-787.421
-644.651
-517.229
-403.503
-301.936
-211.115
-129.764
-56.7145
10
-2160.01
-2160.01
-2181.74
-2226.91
-2311.84
-2491.36
-2824.86
-3046.35
-3282.72
-3544.16
-3841.49
-4224.98
-6609.6
-5668.36
-4855.68
-4209.12
-3676.86
-3220.97
-2820.19
-2462.86
-2142.41
-1854.6
-1596.27
-1364.78
-1157.72
-972.853
-807.966
-661.035
-530.136
-413.477
-309.408
-216.424
-133.171
-58.4142
10
-2043.65
-2043.65
-2055.08
-2073.35
-2094.77
-2094.77
-2824.86
-3046.35
-3282.72
-3841.49
-3841.49
-4224.98
-10141.1
-6761.49
-5339.04
-4493.73
-3874.99
-3370.28
-2936.61
-2554.91
-2215.56
-1912.77
-1642.47
-1401.39
-1186.64
-995.586
-825.733
-674.808
-540.692
-421.435
-315.252
-220.524
-135.798
-59.7469
10
-1937.46
-1937.46
-1941.45
-1943.22
-1937.35
-1937.35
0
0
0
-8573.92
-8573.92
-8674.26
-7229.36
-6202.2
-5327.32
-4610.26
-4010.46
-3494.46
-3041.99
-2641.13
-2284.59
-1967.21
-1684.9
-1434.11
-1211.62
-1014.47
-839.842
-685.22
-548.266
-426.852
-319.045
-223.096
-137.431
-60.6036
10
-1853.02
-1853.02
-1853.41
-1848.89
-1836.8
-1836.8
0
0
0
-7761.98
-7761.98
-7323.72
-6627.14
-5957.9
-5304.86
-4687.91
-4119.92
-3603.96
-3138.72
-2721.31
-2348.46
-2016.66
-1722.29
-1461.77
-1231.62
-1028.56
-849.465
-691.536
-552.205
-429.154
-320.295
-223.741
-137.784
-60.8315
10
-1793.65
-1793.65
-1792.72
-1786.75
-1774.54
-1774.54
0
0
0
-7199.81
-7199.81
-6885.53
-6435.05
-5912.23
-5350.26
-4779.89
-4226.38
-3706.01
-3227.38
-2793.67
-2404.85
-2058.92
-1752.77
-1482.83
-1245.39
-1036.83
-853.725
-692.987
-551.812
-427.697
-318.408
-221.936
-136.451
-60.198
10
-1757.27
-1757.27
-1756.02
-1750.53
-1740.18
-1740.18
0
0
0
-6920.53
-6920.53
-6719.73
-6390.12
-5948.58
-5431.71
-4879.74
-4326.66
-3796.27
-3302.79
-2853.12
-2449.32
-2090.39
-1773.55
-1495.18
-1251.32
-1038.04
-851.642
-688.745
-546.339
-421.758
-312.66
-216.971
-132.805
-58.3003
10
-1738.87
-1738.87
-1737.66
-1733.18
-1725.22
-1725.22
0
0
0
-6801
-6801
-6662.69
-6399.12
-6004.26
-5510.61
-4963.92
-4404.94
-3862.85
-3355.55
-2892.18
-2476.02
-2106.6
-1781.3
-1496.36
-1247.62
-1030.9
-842.22
-677.999
-535.046
-410.581
-302.211
-207.883
-125.822
-54.3256
10
-1732.24
-1732.24
-1731.37
-1727.56
-1721.51
-1721.51
0
0
0
-6760.39
-6760.39
-6650.48
-6416.98
-6042.52
-5557.07
-5009.3
-4443.77
-3892.64
-3375.74
-2903.33
-2479.29
-2103.37
-1772.96
-1484.22
-1232.82
-1014.39
-824.779
-660.256
-517.509
-393.684
-286.375
-193.622
-113.946
-46.4348
10
-1732.24
-1732.24
-1731.37
-1727.56
-1721.51
-1721.51
0
0
0
-6760.39
-6760.39
-6650.48
-6416.98
-6042.52
-5557.07
-5009.3
-4443.77
-3892.64
-3375.74
-2903.33
-2479.29
-2103.37
-1772.96
-1484.22
-1232.82
-1014.39
-824.779
-660.256
-517.509
-393.684
-286.375
-193.622
-113.946
-46.4348
10

SCALARS  u float
LOOKUP_TABLE default 
0.3625
-0.757761
-0.775046
-0.78032
-0.784482
-0.789857
0
0
0
-2.43454
-2.82458
-2.83324
-2.82701
-2.80309
-2.76348
-2.71281
-2.65592
-2.59678
-2.53833
-2.48256
-2.43077
-2.38371
-2.34177
-2.30502
-2.27337
-2.24656
-2.22428
-2.20615
-2.19177
-2.18073
-2.17263
-2.16709
-2.16376
-2.16231
-2.16231
1.40229
-0.851153
-0.893691
-0.916007
-0.940381
-1.27188
0
0
0
-4.94201
-5.75489
-5.81601
-5.81258
-5.76192
-5.67576
-5.56613
-5.44381
-5.31726
-5.19249
-5.07362
-4.96323
-4.86288
-4.77329
-4.69461
-4.62657
-4.56854
-4.51975
-4.47945
-4.44682
-4.42094
-4.40093
-4.38593
-4.37518
-4.36818
-4.36609
2.24381
-0.447705
-0.501181
-0.519655
-0.540666
-1.07473
0
0
0
-4.91461
-5.5187
-5.44289
-5.35564
-5.25827
-5.15416
-5.04795
-4.94357
-4.84398
-4.75131
-4.66704
-4.59208
-4.52685
-4.4714
-4.42539
-4.38827
-4.35926
-4.33751
-4.32215
-4.31232
-4.30719
-4.30598
-4.30802
-4.31278
-4.32012
-4.32485
3.00363
1.51165
0.07011
-0.139872
-0.178206
-0.898903
0
0
0
-4.84481
-5.26483
-5.06643
-4.87036
-4.70896
-4.58177
-4.47993
-4.39601
-4.32559
-4.26629
-4.21691
-4.17672
-4.14522
-4.12184
-4.10599
-4.09693
-4.09389
-4.0961
-4.10276
-4.11312
-4.12652
-4.14233
-4.16001
-4.17915
-4.19953
-4.2104
3.68351
3.6242
2.14458
1.81092
0.289238
-0.741713
0
0
0
-4.73773
-4.93767
-4.62036
-4.33263
-4.12794
-3.99612
-3.91255
-3.85799
-3.82195
-3.79879
-3.78548
-3.78024
-3.78195
-3.78972
-3.80277
-3.82038
-3.84184
-3.86648
-3.89367
-3.92284
-3.95346
-3.98508
-4.01728
-4.04974
-4.08221
-4.09882
4.28349
4.27072
4.18388
4.0162
2.34152
0.218161
0
0
0
-4.50077
-4.41394
-4.0102
-3.70475
-3.51721
-3.41367
-3.37053
-3.35761
-3.36168
-3.37644
-3.39865
-3.42648
-3.45875
-3.49461
-3.53339
-3.57448
-3.61735
-3.66154
-3.70659
-3.75212
-3.79779
-3.84326
-3.88828
-3.93257
-3.97593
-3.99776
4.80356
4.79495
4.77366
4.7161
4.47901
2.09366
0
0
0
-4.17098
-3.5227
-3.03321
-2.89429
-2.94124
-2.88788
-2.90093
-2.93596
-2.98059
-3.03043
-3.08355
-3.1389
-3.19585
-3.25393
-3.31277
-3.37205
-3.43149
-3.49084
-3.54984
-3.60828
-3.66594
-3.72263
-3.77816
-3.83235
-3.88501
-3.91136
5.24373
5.22365
5.19263
3.2015
2.15721
1.72435
0.603717
0.518859
0.466025
-2.18408
-2.3418
-1.69607
-1.7357
-2.42089
-2.49474
-2.57084
-2.64553
-2.71913
-2.792
-2.86433
-2.93624
-3.00781
-3.07905
-3.14992
-3.22034
-3.29019
-3.35936
-3.42771
-3.49506
-3.56127
-3.62619
-3.68969
-3.75164
-3.81185
-3.84192
5.60401
2.05748
1.95469
-0.115035
-1.15671
-1.39778
-1.72524
-1.89516
-2.01362
-2.11285
-2.09689
-1.85517
-1.96913
-2.32126
-2.37673
-2.44779
-2.52075
-2.59372
-2.66681
-2.74028
-2.81424
-2.88869
-2.96351
-3.03855
-3.11363
-3.18849
-3.26298
-3.33684
-3.40981
-3.48168
-3.55228
-3.62148
-3.6892
-3.75537
-3.78848
5.88433
-1.60921
-1.70957
-1.82199
-1.89551
-1.92767
-1.96904
-1.99601
-2.00847
-2.01067
-1.99714
-1.95963
-2.03575
-2.17702
-2.25533
-2.33011
-2.40465
-2.47981
-2.55591
-2.63306
-2.71119
-2.79011
-2.86955
-2.9493
-3.02912
-3.10868
-3.18738
-3.26463
-3.3402
-3.41404
-3.48618
-3.55663
-3.62557
-3.6935
-3.72771
6.08462
-1.93099
-1.97495
-1.98099
-1.98115
-1.97628
-1.97219
-1.96894
-1.96544
-1.96299
-1.96361
-1.97506
-2.02485
-2.1019
-2.17609
-2.24929
-2.32316
-2.39829
-2.47473
-2.55233
-2.63078
-2.70986
-2.78927
-2.86851
-2.94709
-3.02475
-3.10157
-3.17767
-3.25293
-3.32716
-3.40021
-3.47203
-3.54262
-3.61192
-3.64667
6.20483
-0.198097
-1.93675
-1.95916
-1.96524
-1.95807
-1.94785
-1.93901
-1.93275
-1.93121
-1.93802
-1.9591
-2.00175
-2.06166
-2.12821
-2.19759
-2.26885
-2.34184
-2.4165
-2.49271
-2.57024
-2.64876
-2.72789
-2.80736
-2.88692
-2.96625
-3.04498
-3.12283
-3.19963
-3.27522
-3.34947
-3.42232
-3.49374
-3.5637
-3.59877
6.24493
3.89424
2.18143
2.00214
-1.64559
-1.9341
-1.92846
-1.91724
-1.90873
-1.90578
-1.91257
-1.93472
-1.9768
-2.03536
-2.10236
-2.1734
-2.24669
-2.32167
-2.39812
-2.47587
-2.55465
-2.63417
-2.71411
-2.79414
-2.87398
-2.95332
-3.0319
-3.10948
-3.1859
-3.26102
-3.33477
-3.40709
-3.47796
-3.54741
-3.58224
6.20485
6.21155
6.23475
6.1101
1.19663
-1.89559
-1.92347
-1.91198
-1.90088
-1.89319
-1.89329
-1.90977
-1.9553
-2.02381
-2.09877
-2.1755
-2.25293
-2.33097
-2.40968
-2.48906
-2.56896
-2.64918
-2.72946
-2.80952
-2.88909
-2.96792
-3.04578
-3.1225
-3.19792
-3.27196
-3.34457
-3.41573
-3.48545
-3.55378
-3.58807
6.08465
6.09669
6.13576
6.19069
2.12043
-1.89241
-1.92789
-1.91963
-1.90734
-1.89308
-1.87883
-1.87547
-1.93256
-2.03317
-2.12421
-2.20998
-2.29297
-2.37444
-2.45509
-2.53531
-2.61524
-2.69487
-2.77411
-2.85279
-2.93072
-3.00774
-3.08367
-3.15838
-3.23177
-3.30378
-3.37439
-3.44359
-3.51143
-3.57799
-3.61142
5.88436
5.89352
5.92626
5.84124
-0.292496
-1.85396
-1.9071
-1.92845
-1.92944
-1.91491
-1.87509
-1.79218
-1.89788
-2.10631
-2.20645
-2.29746
-2.38322
-2.46537
-2.54513
-2.62333
-2.70047
-2.77679
-2.85238
-2.92722
-3.00124
-3.07432
-3.14638
-3.21731
-3.28705
-3.35557
-3.42287
-3.48896
-3.55389
-3.61776
-3.64989
5.60402
5.60792
5.62642
5.52138
0.835546
-1.29525
-1.63968
-1.80647
-1.90819
-1.99538
-1.95277
-1.52669
-1.69617
-2.24991
-2.32541
-2.41712
-2.50532
-2.58834
-2.66726
-2.74322
-2.817
-2.88914
-2.95994
-3.0296
-3.0982
-3.16578
-3.23235
-3.29792
-3.36249