# vtk DataFile Version 3.0
vtk output340
ASCII
DATASET STRUCTURED_GRID
DIMENSIONS 36 26 1
POINTS 936 float
0 0 0
0.171429 0 0
0.342857 0 0
0.514286 0 0
0.685714 0 0
0.857143 0 0
1.02857 0 0
1.2 0 0
1.37143 0 0
1.54286 0 0
1.71429 0 0
1.88571 0 0
2.05714 0 0
2.22857 0 0
2.4 0 0
2.57143 0 0
2.74286 0 0
2.91429 0 0
3.08571 0 0
3.25714 0 0
3.42857 0 0
3.6 0 0
3.77143 0 0
3.94286 0 0
4.11429 0 0
4.28571 0 0
4.45714 0 0
4.62857 0 0
4.8 0 0
4.97143 0 0
5.14286 0 0
5.31429 0 0
5.48571 0 0
5.65714 0 0
5.82857 0 0
6 0 0
0 0.2 0
0.171429 0.2 0
0.342857 0.2 0
0.514286 0.2 0
0.685714 0.2 0
0.857143 0.2 0
1.02857 0.2 0
1.2 0.2 0
1.37143 0.2 0
1.54286 0.2 0
1.71429 0.2 0
1.88571 0.2 0
2.05714 0.2 0
2.22857 0.2 0
2.4 0.2 0
2.57143 0.2 0
2.74286 0.2 0
2.91429 0.2 0
3.08571 0.2 0
3.25714 0.2 0
3.42857 0.2 0
3.6 0.2 0
3.77143 0.2 0
3.94286 0.2 0
4.11429 0.2 0
4.28571 0.2 0
4.45714 0.2 0
4.62857 0.2 0
4.8 0.2 0
4.97143 0.2 0
5.14286 0.2 0
5.31429 0.2 0
5.48571 0.2 0
5.65714 0.2 0
5.82857 0.2 0
6 0.2 0
0 0.4 0
0.171429 0.4 0
0.342857 0.4 0
0.514286 0.4 0
0.685714 0.4 0
0.857143 0.4 0
1.02857 0.4 0
1.2 0.4 0
1.37143 0.4 0
1.54286 0.4 0
1.71429 0.4 0
1.88571 0.4 0
2.05714 0.4 0
2.22857 0.4 0
2.4 0.4 0
2.57143 0.4 0
2.74286 0.4 0
2.91429 0.4 0
3.08571 0.4 0
3.25714 0.4 0
3.42857 0.4 0
3.6 0.4 0
3.77143 0.4 0
3.94286 0.4 0
4.11429 0.4 0
4.28571 0.4 0
4.45714 0.4 0
4.62857 0.4 0
4.8 0.4 0
4.97143 0.4 0
5.14286 0.4 0
5.31429 0.4 0
5.48571 0.4 0
5.65714 0.4 0
5.82857 0.4 0
6 0.4 0
0 0.6 0
0.171429 0.6 0
0.342857 0.6 0
0.514286 0.6 0
0.685714 0.6 0
0.857143 0.6 0
1.02857 0.6 0
1.2 0.6 0
1.37143 0.6 0
1.54286 0.6 0
1.71429 0.6 0
1.88571 0.6 0
2.05714 0.6 0
2.22857 0.6 0
2.4 0.6 0
2.57143 0.6 0
2.74286 0.6 0
2.91429 0.6 0
3.08571 0.6 0
3.25714 0.6 0
3.42857 0.6 0
3.6 0.6 0
3.77143 0.6 0
3.94286 0.6 0
4.11429 0.6 0
4.28571 0.6 0
4.45714 0.6 0
4.62857 0.6 0
4.8 0.6 0
4.97143 0.6 0
5.14286 0.6 0
5.31429 0.6 0
5.48571 0.6 0
5.65714 0.6 0
5.82857 0.6 0
6 0.6 0
0 0.8 0
0.171429 0.8 0
0.342857 0.8 0
0.514286 0.8 0
0.685714 0.8 0
0.857143 0.8 0
1.02857 0.8 0
1.2 0.8 0
1.37143 0.8 0
1.54286 0.8 0
1.71429 0.8 0
1.88571 0.8 0
2.05714 0.8 0
2.22857 0.8 0
2.4 0.8 0
2.57143 0.8 0
2.74286 0.8 0
2.91429 0.8 0
3.08571 0.8 0
3.25714 0.8 0
3.42857 0.8 0
3.6 0.8 0
3.77143 0.8 0
3.94286 0.8 0
4.11429 0.8 0
4.28571 0.8 0
4.45714 0.8 0
4.62857 0.8 0
4.8 0.8 0
4.97143 0.8 0
5.14286 0.8 0
5.31429 0.8 0
5.48571 0.8 0
5.65714 0.8 0
5.82857 0.8 0
6 0.8 0
0 1 0
0.171429 1 0
0.342857 1 0
0.514286 1 0
0.685714 1 0
0.857143 1 0
1.02857 1 0
1.2 1 0
1.37143 1 0
1.54286 1 0
1.71429 1 0
1.88571 1 0
2.05714 1 0
2.22857 1 0
2.4 1 0
2.57143 1 0
2.74286 1 0
2.91429 1 0
3.08571 1 0
3.25714 1 0
3.42857 1 0
3.6 1 0
3.77143 1 0
3.94286 1 0
4.11429 1 0
4.28571 1 0
4.45714 1 0
4.62857 1 0
4.8 1 0
4.97143 1 0
5.14286 1 0
5.31429 1 0
5.48571 1 0
5.65714 1 0
5.82857 1 0
6 1 0
0 1.2 0
0.171429 1.2 0
0.342857 1.2 0
0.514286 1.2 0
0.685714 1.2 0
0.857143 1.2 0
1.02857 1.2 0
1.2 1.2 0
1.37143 1.2 0
1.54286 1.2 0
1.71429 1.2 0
1.88571 1.2 0
2.05714 1.2 0
2.22857 1.2 0
2.4 1.2 0
2.57143 1.2 0
2.74286 1.2 0
2.91429 1.2 0
3.08571 1.2 0
3.25714 1.2 0
3.42857 1.2 0
3.6 1.2 0
3.77143 1.2 0
3.94286 1.2 0
4.11429 1.2 0
4.28571 1.2 0
4.45714 1.2 0
4.62857 1.2 0
4.8 1.2 0
4.97143 1.2 0
5.14286 1.2 0
5.31429 1.2 0
5.48571 1.2 0
5.65714 1.2 0
5.82857 1.2 0
6 1.2 0
0 1.4 0
0.171429 1.4 0
0.342857 1.4 0
0.514286 1.4 0
0.685714 1.4 0
0.857143 1.4 0
1.02857 1.4 0
1.2 1.4 0
1.37143 1.4 0
1.54286 1.4 0
1.71429 1.4 0
1.88571 1.4 0
2.05714 1.4 0
2.22857 1.4 0
2.4 1.4 0
2.57143 1.4 0
2.74286 1.4 0
2.91429 1.4 0
3.08571 1.4 0
3.25714 1.4 0
3.42857 1.4 0
3.6 1.4 0
3.77143 1.4 0
3.94286 1.4 0
4.11429 1.4 0
4.28571 1.4 0
4.45714 1.4 0
4.62857 1.4 0
4.8 1.4 0
4.97143 1.4 0
5.14286 1.4 0
5.31429 1.4 0
5.48571 1.4 0
5.65714 1.4 0
5.82857 1.4 0
6 1.4 0
0 1.6 0
0.171429 1.6 0
0.342857 1.6 0
0.514286 1.6 0
0.685714 1.6 0
0.857143 1.6 0
1.02857 1.6 0
1.2 1.6 0
1.37143 1.6 0
1.54286 1.6 0
1.71429 1.6 0
1.88571 1.6 0
2.05714 1.6 0
2.22857 1.6 0
2.4 1.6 0
2.57143 1.6 0
2.74286 1.6 0
2.91429 1.6 0
3.08571 1.6 0
3.25714 1.6 0
3.42857 1.6 0
3.6 1.6 0
3.77143 1.6 0
3.94286 1.6 0
4.11429 1.6 0
4.28571 1.6 0
4.45714 1.6 0
4.62857 1.6 0
4.8 1.6 0
4.97143 1.6 0
5.14286 1.6 0
5.31429 1.6 0
5.48571 1.6 0
5.65714 1.6 0
5.82857 1.6 0
6 1.6 0
0 1.8 0
0.171429 1.8 0
0.342857 1.8 0
0.514286 1.8 0
0.685714 1.8 0
0.857143 1.8 0
1.02857 1.8 0
1.2 1.8 0
1.37143 1.8 0
1.54286 1.8 0
1.71429 1.8 0
1.88571 1.8 0
2.05714 1.8 0
2.22857 1.8 0
2.4 1.8 0
2.57143 1.8 0
2.74286 1.8 0
2.91429 1.8 0
3.08571 1.8 0
3.25714 1.8 0
3.42857 1.8 0
3.6 1.8 0
3.77143 1.8 0
3.94286 1.8 0
4.11429 1.8 0
4.28571 1.8 0
4.45714 1.8 0
4.62857 1.8 0
4.8 1.8 0
4.97143 1.8 0
5.14286 1.8 0
5.31429 1.8 0
5.48571 1.8 0
5.65714 1.8 0
5.82857 1.8 0
6 1.8 0
0 2 0
0.171429 2 0
0.342857 2 0
0.514286 2 0
0.685714 2 0
0.857143 2 0
1.02857 2 0
1.2 2 0
1.37143 2 0
1.54286 2 0
1.71429 2 0
1.88571 2 0
2.05714 2 0
2.22857 2 0
2.4 2 0
2.57143 2 0
2.74286 2 0
2.91429 2 0
3.08571 2 0
3.25714 2 0
3.42857 2 0
3.6 2 0
3.77143 2 0
3.94286 2 0
4.11429 2 0
4.28571 2 0
4.45714 2 0
4.62857 2 0
4.8 2 0
4.97143 2 0
5.14286 2 0
5.31429 2 0
5.48571 2 0
5.65714 2 0
5.82857 2 0
6 2 0
0 2.2 0
0.171429 2.2 0
0.342857 2.2 0
0.514286 2.2 0
0.685714 2.2 0
0.857143 2.2 0
1.02857 2.2 0
1.2 2.2 0
1.37143 2.2 0
1.54286 2.2 0
1.71429 2.2 0
1.88571 2.2 0
2.05714 2.2 0
2.22857 2.2 0
2.4 2.2 0
2.57143 2.2 0
2.74286 2.2 0
2.91429 2.2 0
3.08571 2.2 0
3.25714 2.2 0
3.42857 2.2 0
3.6 2.2 0
3.77143 2.2 0
3.94286 2.2 0
4.11429 2.2 0
4.28571 2.2 0
4.45714 2.2 0
4.62857 2.2 0
4.8 2.2 0
4.97143 2.2 0
5.14286 2.2 0
5.31429 2.2 0
5.48571 2.2 0
5.65714 2.2 0
5.82857 2.2 0
6 2.2 0
0 2.4 0
0.171429 2.4 0
0.342857 2.4 0
0.514286 2.4 0
0.685714 2.4 0
0.857143 2.4 0
1.02857 2.4 0
1.2 2.4 0
1.37143 2.4 0
1.54286 2.4 0
1.71429 2.4 0
1.88571 2.4 0
2.05714 2.4 0
2.22857 2.4 0
2.4 2.4 0
2.57143 2.4 0
2.74286 2.4 0
2.91429 2.4 0
3.08571 2.4 0
3.25714 2.4 0
3.42857 2.4 0
3.6 2.4 0
3.77143 2.4 0
3.94286 2.4 0
4.11429 2.4 0
4.28571 2.4 0
4.45714 2.4 0
4.62857 2.4 0
4.8 2.4 0
4.97143 2.4 0
5.14286 2.4 0
5.31429 2.4 0
5.48571 2.4 0
5.65714 2.4 0
5.82857 2.4 0
6 2.4 0
0 2.6 0
0.171429 2.6 0
0.342857 2.6 0
0.514286 2.6 0
0.685714 2.6 0
0.857143 2.6 0
1.02857 2.6 0
1.2 2.6 0
1.37143 2.6 0
1.54286 2.6 0
1.71429 2.6 0
1.88571 2.6 0
2.05714 2.6 0
2.22857 2.6 0
2.4 2.6 0
2.57143 2.6 0
2.74286 2.6 0
2.91429 2.6 0
3.08571 2.6 0
3.25714 2.6 0
3.42857 2.6 0
3.6 2.6 0
3.77143 2.6 0
3.94286 2.6 0
4.11429 2.6 0
4.28571 2.6 0
4.45714 2.6 0
4.62857 2.6 0
4.8 2.6 0
4.97143 2.6 0
5.14286 2.6 0
5.31429 2.6 0
5.48571 2.6 0
5.65714 2.6 0
5.82857 2.6 0
6 2.6 0
0 2.8 0
0.171429 2.8 0
0.342857 2.8 0
0.514286 2.8 0
0.685714 2.8 0
0.857143 2.8 0
1.02857 2.8 0
1.2 2.8 0
1.37143 2.8 0
1.54286 2.8 0
1.71429 2.8 0
1.88571 2.8 0
2.05714 2.8 0
2.22857 2.8 0
2.4 2.8 0
2.57143 2.8 0
2.74286 2.8 0
2.91429 2.8 0
3.08571 2.8 0
3.25714 2.8 0
3.42857 2.8 0
3.6 2.8 0
3.77143 2.8 0
3.94286 2.8 0
4.11429 2.8 0
4.28571 2.8 0
4.45714 2.8 0
4.62857 2.8 0
4.8 2.8 0
4.97143 2.8 0
5.14286 2.8 0
5.31429 2.8 0
5.48571 2.8 0
5.65714 2.8 0
5.82857 2.8 0
6 2.8 0
0 3 0
0.171429 3 0
0.342857 3 0
0.514286 3 0
0.685714 3 0
0.857143 3 0
1.02857 3 0
1.2 3 0
1.37143 3 0
1.54286 3 0
1.71429 3 0
1.88571 3 0
2.05714 3 0
2.22857 3 0
2.4 3 0
2.57143 3 0
2.74286 3 0
2.91429 3 0
3.08571 3 0
3.25714 3 0
3.42857 3 0
3.6 3 0
3.77143 3 0
3.94286 3 0
4.11429 3 0
4.28571 3 0
4.45714 3 0
4.62857 3 0
4.8 3 0
4.97143 3 0
5.14286 3 0
5.31429 3 0
5.48571 3 0
5.65714 3 0
5.82857 3 0
6 3 0
0 3.2 0
0.171429 3.2 0
0.342857 3.2 0
0.514286 3.2 0
0.685714 3.2 0
0.857143 3.2 0
1.02857 3.2 0
1.2 3.2 0
1.37143 3.2 0
1.54286 3.2 0
1.71429 3.2 0
1.88571 3.2 0
2.05714 3.2 0
2.22857 3.2 0
2.4 3.2 0
2.57143 3.2 0
2.74286 3.2 0
2.91429 3.2 0
3.08571 3.2 0
3.25714 3.2 0
3.42857 3.2 0
3.6 3.2 0
3.77143 3.2 0
3.94286 3.2 0
4.11429 3.2 0
4.28571 3.2 0
4.45714 3.2 0
4.62857 3.2 0
4.8 3.2 0
4.97143 3.2 0
5.14286 3.2 0
5.31429 3.2 0
5.48571 3.2 0
5.65714 3.2 0
5.82857 3.2 0
6 3.2 0
0 3.4 0
0.171429 3.4 0
0.342857 3.4 0
0.514286 3.4 0
0.685714 3.4 0
0.857143 3.4 0
1.02857 3.4 0
1.2 3.4 0
1.37143 3.4 0
1.54286 3.4 0
1.71429 3.4 0
1.88571 3.4 0
2.05714 3.4 0
2.22857 3.4 0
2.4 3.4 0
2.57143 3.4 0
2.74286 3.4 0
2.91429 3.4 0
3.08571 3.4 0
3.25714 3.4 0
3.42857 3.4 0
3.6 3.4 0
3.77143 3.4 0
3.94286 3.4 0
4.11429 3.4 0
4.28571 3.4 0
4.45714 3.4 0
4.62857 3.4 0
4.8 3.4 0
4.97143 3.4 0
5.14286 3.4 0
5.31429 3.4 0
5.48571 3.4 0
5.65714 3.4 0
5.82857 3.4 0
6 3.4 0
0 3.6 0
0.171429 3.6 0
0.342857 3.6 0
0.514286 3.6 0
0.685714 3.6 0
0.857143 3.6 0
1.02857 3.6 0
1.2 3.6 0
1.37143 3.6 0
1.54286 3.6 0
1.71429 3.6 0
1.88571 3.6 0
2.05714 3.6 0
2.22857 3.6 0
2.4 3.6 0
2.57143 3.6 0
2.74286 3.6 0
2.91429 3.6 0
3.08571 3.6 0
3.25714 3.6 0
3.42857 3.6 0
3.6 3.6 0
3.77143 3.6 0
3.94286 3.6 0
4.11429 3.6 0
4.28571 3.6 0
4.45714 3.6 0
4.62857 3.6 0
4.8 3.6 0
4.97143 3.6 0
5.14286 3.6 0
5.31429 3.6 0
5.48571 3.6 0
5.65714 3.6 0
5.82857 3.6 0
6 3.6 0
0 3.8 0
0.171429 3.8 0
0.342857 3.8 0
0.514286 3.8 0
0.685714 3.8 0
0.857143 3.8 0
1.02857 3.8 0
1.2 3.8 0
1.37143 3.8 0
1.54286 3.8 0
1.71429 3.8 0
1.88571 3.8 0
2.05714 3.8 0
2.22857 3.8 0
2.4 3.8 0
2.57143 3.8 0
2.74286 3.8 0
2.91429 3.8 0
3.08571 3.8 0
3.25714 3.8 0
3.42857 3.8 0
3.6 3.8 0
3.77143 3.8 0
3.94286 3.8 0
4.11429 3.8 0
4.28571 3.8 0
4.45714 3.8 0
4.62857 3.8 0
4.8 3.8 0
4.97143 3.8 0
5.14286 3.8 0
5.31429 3.8 0
5.48571 3.8 0
5.65714 3.8 0
5.82857 3.8 0
6 3.8 0
0 4 0
0.171429 4 0
0.342857 4 0
0.514286 4 0
0.685714 4 0
0.857143 4 0
1.02857 4 0
1.2 4 0
1.37143 4 0
1.54286 4 0
1.71429 4 0
1.88571 4 0
2.05714 4 0
2.22857 4 0
2.4 4 0
2.57143 4 0
2.74286 4 0
2.91429 4 0
3.08571 4 0
3.25714 4 0
3.42857 4 0
3.6 4 0
3.77143 4 0
3.94286 4 0
4.11429 4 0
4.28571 4 0
4.45714 4 0
4.62857 4 0
4.8 4 0
4.97143 4 0
5.14286 4 0
5.31429 4 0
5.48571 4 0
5.65714 4 0
5.82857 4 0
6 4 0
0 4.2 0
0.171429 4.2 0
0.342857 4.2 0
0.514286 4.2 0
0.685714 4.2 0
0.857143 4.2 0
1.02857 4.2 0
1.2 4.2 0
1.37143 4.2 0
1.54286 4.2 0
1.71429 4.2 0
1.88571 4.2 0
2.05714 4.2 0
2.22857 4.2 0
2.4 4.2 0
2.57143 4.2 0
2.74286 4.2 0
2.91429 4.2 0
3.08571 4.2 0
3.25714 4.2 0
3.42857 4.2 0
3.6 4.2 0
3.77143 4.2 0
3.94286 4.2 0
4.11429 4.2 0
4.28571 4.2 0
4.45714 4.2 0
4.62857 4.2 0
4.8 4.2 0
4.97143 4.2 0
5.14286 4.2 0
5.31429 4.2 0
5.48571 4.2 0
5.65714 4.2 0
5.82857 4.2 0
6 4.2 0
0 4.4 0
0.171429 4.4 0
0.342857 4.4 0
0.514286 4.4 0
0.685714 4.4 0
0.857143 4.4 0
1.02857 4.4 0
1.2 4.4 0
1.37143 4.4 0
1.54286 4.4 0
1.71429 4.4 0
1.88571 4.4 0
2.05714 4.4 0
2.22857 4.4 0
2.4 4.4 0
2.57143 4.4 0
2.74286 4.4 0
2.91429 4.4 0
3.08571 4.4 0
3.25714 4.4 0
3.42857 4.4 0
3.6 4.4 0
3.77143 4.4 0
3.94286 4.4 0
4.11429 4.4 0
4.28571 4.4 0
4.45714 4.4 0
4.62857 4.4 0
4.8 4.4 0
4.97143 4.4 0
5.14286 4.4 0
5.31429 4.4 0
5.48571 4.4 0
5.65714 4.4 0
5.82857 4.4 0
6 4.4 0
0 4.6 0
0.171429 4.6 0
0.342857 4.6 0
0.514286 4.6 0
0.685714 4.6 0
0.857143 4.6 0
1.02857 4.6 0
1.2 4.6 0
1.37143 4.6 0
1.54286 4.6 0
1.71429 4.6 0
1.88571 4.6 0
2.05714 4.6 0
2.22857 4.6 0
2.4 4.6 0
2.57143 4.6 0
2.74286 4.6 0
2.91429 4.6 0
3.08571 4.6 0
3.25714 4.6 0
3.42857 4.6 0
3.6 4.6 0
3.77143 4.6 0
3.94286 4.6 0
4.11429 4.6 0
4.28571 4.6 0
4.45714 4.6 0
4.62857 4.6 0
4.8 4.6 0
4.97143 4.6 0
5.14286 4.6 0
5.31429 4.6 0
5.48571 4.6 0
5.65714 4.6 0
5.82857 4.6 0
6 4.6 0
0 4.8 0
0.171429 4.8 0
0.342857 4.8 0
0.514286 4.8 0
0.685714 4.8 0
0.857143 4.8 0
1.02857 4.8 0
1.2 4.8 0
1.37143 4.8 0
1.54286 4.8 0
1.71429 4.8 0
1.88571 4.8 0
2.05714 4.8 0
2.22857 4.8 0
2.4 4.8 0
2.57143 4.8 0
2.74286 4.8 0
2.91429 4.8 0
3.08571 4.8 0
3.25714 4.8 0
3.42857 4.8 0
3.6 4.8 0
3.77143 4.8 0
3.94286 4.8 0
4.11429 4.8 0
4.28571 4.8 0
4.45714 4.8 0
4.62857 4.8 0
4.8 4.8 0
4.97143 4.8 0
5.14286 4.8 0
5.31429 4.8 0
5.48571 4.8 0
5.65714 4.8 0
5.82857 4.8 0
6 4.8 0
0 5 0
0.171429 5 0
0.342857 5 0
0.514286 5 0
0.685714 5 0
0.857143 5 0
1.02857 5 0
1.2 5 0
1.37143 5 0
1.54286 5 0
1.71429 5 0
1.88571 5 0
2.05714 5 0
2.22857 5 0
2.4 5 0
2.57143 5 0
2.74286 5 0
2.91429 5 0
3.08571 5 0
3.25714 5 0
3.42857 5 0
3.6 5 0
3.77143 5 0
3.94286 5 0
4.11429 5 0
4.28571 5 0
4.45714 5 0
4.62857 5 0
4.8 5 0
4.97143 5 0
5.14286 5 0
5.31429 5 0
5.48571 5 0
5.65714 5 0
5.82857 5 0
6 5 0

CELL_DATA 875
SCALARS phi float
LOOKUP_TABLE default 
4.711
4.711
4.711
4.711
4.711
4.711
4.711
4.711
4.711
4.711
4.711
4.711
4.711
4.711
4.711
4.711
4.711
4.711
4.711
4.711
4.711
4.711
4.711
4.711
4.711
4.711
4.711
4.711
4.711
4.711
4.711
4.711
4.711
4.711
4.711
4.711
4.711
4.711
4.711
4.711
4.711
4.711
4.711
4.711
4.711
4.711
4.711
4.711
4.711
4.711
4.711
4.711
4.711
4.711
4.711
4.711
4.711
4.711
4.711
4.711
4.711
4.711
4.711
4.711
4.711
4.711
4.711
4.711
4.711
4.711
4.711
4.711
4.711
4.711
4.711
4.711
4.711
4.711
4.711
4.711
4.711
4.711
4.711
4.711
4.711
4.711
4.711
4.711
4.711
4.711
4.711
4.711
4.711
4.711
4.711
4.711
4.711
4.711
4.711
4.711
4.711
4.711
4.711
4.711
4.711
4.711
4.711
4.711
4.711
4.711
4.711
4.711
4.711
4.711
4.711
4.711
4.711
4.711
4.711
4.711
4.711
4.711
4.711
4.711
4.711
4.711
4.711
4.711
4.711
4.711
4.711
4.711
4.711
4.711
4.711
4.711
4.711
4.711
4.711
4.711
4.711
4.711
4.711
4.711
4.711
4.711
4.711
4.711
4.711
4.711
4.711
4.711
4.711
4.711
4.711
4.711
4.711
4.711
4.711
4.711
4.711
4.711
4.711
4.711
4.711
4.711
4.711
4.711
4.711
4.711
4.711
4.711
4.711
4.711
4.711
4.711
4.711
4.711
4.711
4.711
4.711
4.711
4.711
4.711
4.711
4.711
4.711
4.711
4.711
4.711
4.711
4.711
4.711
4.711
4.711
4.711
4.711
4.711
4.711
4.711
4.711
4.711
4.711
4.711
4.711
4.711
4.711
4.711
4.711
4.711
4.711
4.711
4.711
4.711
4.711
4.711
4.711
4.711
4.711
4.711
4.711
4.711
4.711
4.711
4.711
4.711
4.711
4.711
4.711
4.711
4.711
4.711
4.711
4.711
4.711
4.711
4.711
4.711
4.711
4.711
4.711
4.711
4.711
4.711
4.711
4.711
4.711
4.711
4.711
4.711
4.711
4.711
4.711
4.711
4.711
4.711
4.711
4.711
4.711
4.711
4.711
4.711
4.711
4.711
4.711
4.711
4.711
4.711
4.711
4.711
4.711
4.711
4.711
4.711
4.711
4.711
4.711
4.711
4.711
4.711
4.711
4.711
4.711
4.711
4.711
4.711
4.711
4.711
4.711
4.711
4.711
4.711
4.711
4.711
4.711
4.711
4.711
4.711
4.711
4.711
4.711
4.711
4.711
4.711
4.711
4.711
4.711
4.711
4.711
4.711
4.711
4.711
4.711
4.711
4.711
4.711
4.711
4.711
4.711
4.711
4.711
4.711
4.711
4.711
4.711
4.711
4.711
4.711
4.711
4.711
4.711
4.711
4.711
4.711
4.711
4.711
4.711
4.711
4.711
4.711
4.711
4.711
4.711
4.711
4.711
4.711
4.711
4.711
4.711
4.711
4.711
4.711
4.711
4.711
4.711
4.711
4.711
4.711
4.711
4.711
4.711
4.711
4.711
4.711
4.711
4.711
4.711
4.711
4.711
4.711
4.711
4.711
4.711
4.711
4.711
4.711
4.711
4.711
4.711
4.711
4.711
4.711
4.711
4.711
4.711
4.711
4.711
4.711
4.711
4.711
4.711
4.711
4.711
4.711
4.711
4.711
4.711
4.711
4.711
4.711
4.711
4.711
4.711
4.711
4.711
4.711
4.711
4.711
4.711
4.711
4.711
4.711
4.711
4.711
4.711
4.711
4.711
4.711
4.711
4.711
4.711
4.711
4.711
4.711
4.711
4.711
4.711
4.711
4.711
4.711
4.711
4.711
4.711
4.711
4.711
4.711
4.711
4.711
4.711
4.711
4.711
4.711
4.711
4.711
4.711
4.711
4.711
4.711
4.711
4.711
4.711
4.711
4.711
4.711
4.711
4.711
4.711
4.711
4.711
4.711
4.711
4.711
4.711
4.711
4.711
4.711
4.711
4.711
4.711
4.711
4.711
4.711
4.711
4.711
4.711
4.711
4.711
4.711
4.711
4.711
4.711
4.711
4.711
4.711
4.711
4.711
4.711
4.711
4.711
4.711
4.711
4.711
4.711
4.711
4.711
4.711
4.711
4.711
4.711
4.711
4.711
4.711
4.711
4.711
4.711
4.711
4.711
4.711
4.711
4.711
4.711
4.711
4.711
4.711
4.711
4.711
4.711
4.711
4.711
4.711
4.711
4.711
4.711
4.711
4.711
4.711
4.711
4.711
4.711
4.711
4.711
4.711
4.711
4.711
4.711
4.711
4.711
4.711
4.711
4.711
4.711
4.711
4.711
4.711
4.711
4.711
4.711
4.711
4.711
4.711
4.711
4.711
4.711
4.711
4.711
4.711
4.711
4.711
4.711
4.711
4.711
4.711
4.711
4.711
4.711
4.711
4.711
4.711
4.711
4.711
4.711
4.711
4.711
4.711
4.711
4.711
4.711
4.711
4.711
4.711
4.711
4.711
4.711
4.711
4.711
4.711
4.711
4.711
4.711
4.711
4.711
4.711
4.711
4.711
4.711
4.711
4.711
4.711
4.711
4.711
4.711
4.711
4.711
4.711
4.711
4.711
4.711
4.711
4.711
4.711
4.711
4.711
4.711
4.711
4.711
4.711
4.711
4.711
4.711
4.711
4.711
4.711
4.711
4.711
4.711
4.711
4.711
4.711
4.711
4.711
4.711
4.711
4.711
4.711
4.711
4.711
4.711
4.711
4.711
4.711
4.711
4.711
4.711
4.711
4.711
4.711
4.711
4.711
4.711
4.711
4.711
4.711
4.711
4.711
4.711
4.711
4.711
4.711
4.711
4.711
4.711
4.711
4.711
4.711
4.711
4.711
4.711
4.711
4.711
4.711
4.711
4.711
4.711
4.711
4.711
4.711
4.711
4.711
4.711
4.711
4.711
4.711
4.711
4.711
4.711
4.711
4.711
4.711
4.711
4.711
4.711
4.711
4.711
4.711
4.711
4.711
4.711
4.711
4.711
4.711
4.711
4.711
4.711
4.711
4.711
4.711
4.711
4.711
4.711
4.711
4.711
4.711
4.711
4.711
4.711
4.711
4.711
4.711
4.711
4.711
4.711
4.711
4.711
4.711
4.711
4.711
4.711
4.711
4.711
4.711
4.711
4.711
4.711
4.711
4.711
4.711
4.711
4.711
4.711
4.711
4.711
4.711
4.711
4.711
4.711
4.711
4.711
4.711
4.711
4.711
4.711
4.711
4.711
4.711
4.711
4.711
4.711
4.711
4.711
4.711
4.711
4.711
4.711
4.711
4.711
4.711
4.711
4.711
4.711
4.711
4.711
4.711
4.711
4.711
4.711
4.711
4.711
4.711
4.711
4.711
4.711
4.711
4.711
4.711
4.711
4.711
4.711
4.711
4.711
4.711
4.711
4.711
4.711
4.711
4.711
4.711
4.711
4.711
4.711
4.711
4.711
4.711
4.711
4.711
4.711
4.711
4.711
4.711
4.711
4.711
4.711
4.711
4.711
4.711
4.711
4.711
4.711
4.711
4.711
4.711
4.711
4.711
4.711
4.711
4.711
4.711
4.711
4.711
4.711
4.711
4.711
4.711
4.711
4.711
4.711
4.711
4.711
4.711
4.711
4.711
4.711
4.711
4.711
4.711
4.711
4.711
4.711
4.711
4.711
4.711
4.711
4.711
4.711
4.711
4.711
4.711
4.711
4.711
4.711
4.711
4.711
4.711
4.711
4.711
4.711
4.711
4.711
4.711
4.711
4.711
4.711
4.711
4.711
4.711
4.711

SCALARS p float
LOOKUP_TABLE default 
-1675.54
-1675.54
-1674.66
-1670.85
-1664.79
-1664.79
0
0
0
-4970.19
-4970.19
-4906.99
-4727.39
-4432.58
-4054.71
-3632.55
-3198.89
-2777.03
-2381.73
-2021.14
-1698.91
-1415.58
-1169.68
-958.53
-778.758
-626.734
-498.795
-391.472
-301.562
-226.199
-162.864
-109.388
-63.926
-24.8592
10
-1675.54
-1675.54
-1674.66
-1670.85
-1664.79
-1664.79
0
0
0
-4970.19
-4970.19
-4906.99
-4727.39
-4432.58
-4054.71
-3632.55
-3198.89
-2777.03
-2381.73
-2021.14
-1698.91
-1415.58
-1169.68
-958.53
-778.758
-626.734
-498.795
-391.472
-301.562
-226.199
-162.864
-109.388
-63.926
-24.8592
10
-1682.17
-1682.17
-1680.96
-1676.47
-1668.5
-1668.5
0
0
0
-4973.64
-4973.64
-4913.28
-4736.75
-4437.74
-4052.38
-3623.76
-3186.22
-2762.93
-2367.9
-2008.62
-1688.2
-1406.85
-1162.87
-953.453
-775.177
-624.387
-497.423
-390.841
-301.469
-226.472
-163.364
-109.997
-64.5386
-25.3773
10
-1700.59
-1700.59
-1699.32
-1693.81
-1683.44
-1683.44
0
0
0
-4992.98
-4992.98
-4901.37
-4699.31
-4387.32
-3998.8
-3572.99
-3141.45
-2725.51
-2338.1
-1985.98
-1671.9
-1395.87
-1156.17
-950.046
-774.163
-625.006
-499.053
-392.991
-303.769
-228.654
-165.242
-111.449
-65.4969
-25.8342
10
-1737.01
-1737.01
-1736.04
-1730.01
-1717.75
-1717.75
0
0
0
-5082.27
-5082.27
-4920.5
-4660.01
-4319.89
-3923.83
-3501.75
-3079.71
-2675.65
-2300.36
-1959.39
-1654.86
-1386.54
-1152.75
-950.862
-777.805
-630.311
-505.106
-399.105
-309.453
-233.577
-169.202
-114.347
-67.3141
-26.6361
10
-1796.51
-1796.51
-1796.8
-1792.1
-1779.86
-1779.86
0
0
0
-5335.61
-5335.61
-5063.34
-4698.98
-4305.6
-3878.34
-3444.03
-3023.7
-2629.02
-2265.98
-1937.2
-1643.32
-1383.56
-1156.11
-958.554
-788.1
-641.819
-516.753
-410.11
-319.273
-241.868
-175.772
-119.126
-70.3258
-27.989
10
-1881.29
-1881.29
-1885.01
-1886.3
-1879.97
-1879.97
0
0
0
-5765.16
-5765.16
-5628.7
-5045.37
-4471.97
-3918.26
-3426.53
-2989.72
-2597.61
-2244.28
-1926.62
-1642.74
-1390.89
-1169.09
-975.089
-806.405
-660.469
-534.669
-426.517
-333.654
-253.906
-185.308
-126.108
-74.7911
-30.0535
10
-1988.29
-1988.29
-1999.12
-2016.19
-2036.14
-2036.14
-2734.17
-2924.52
-3112.69
-3302.57
-3503.82
-3738.19
-7020.33
-4942.07
-4013
-3424.86
-2969.14
-2581.01
-2237.76
-1930.52
-1655.41
-1410.07
-1192.56
-1000.85
-832.805
-686.186
-558.712
-448.205
-352.537
-269.721
-197.943
-135.507
-80.9476
-33.0166
10
-2106.48
-2106.48
-2127.12
-2169.72
-2249.71
-2418.76
-2734.17
-2924.52
-3112.69
-3302.57
-3503.82
-3738.19
-4975.81
-4377.42
-3814.38
-3339.89
-2931.12
-2568.68
-2242.22
-1946.7
-1679.72
-1439.69
-1225.17
-1034.61
-866.226
-718.034
-588.078
-474.554
-375.503
-289.069
-213.665
-147.487
-89.0883
-37.2579
10
-2217.97
-2217.97
-2244.49
-2299.17
-2391.46
-2536.02
-2734.17
-2924.52
-3112.69
-3302.57
-3503.82
-3738.19
-4007.48
-3868.92
-3568.96
-3227.54
-2887.05
-2561.7
-2256.61
-1973.85
-1714.56
-1478.81
-1266.12
-1075.71
-906.135
-755.474
-622.133
-504.183
-400.195
-308.796
-228.386
-157.74
-95.5055
-40.2483
10
-2307.88
-2307.88
-2336.29
-2393.72
-2483.89
-2609.79
-2766.91
-2935.63
-3108.31
-3279.86
-3444.38
-3588.82
-3676.52
-3604.93
-3412.47
-3153.58
-2866.39
-2573.28
-2287
-2014.57
-1759.54
-1524.15
-1309.49
-1115.33
-941.061
-785.912
-648.242
-526.586
-419.225
-324.459
-240.76
-166.775
-101.216
-42.8415
10
-2367.1
-2367.1
-2395.6
-2452.71
-2539.47
-2655.52
-2796.52
-2952.91
-3115.82
-3275.79
-3420.01
-3528.45
-3570.42
-3510.67
-3356.86
-3135.84
-2875.67
-2598.77
-2320.82
-2051.85
-1798.13
-1562.82
-1347.17
-1151.36
-974.906
-816.907
-676.021
-550.813
-439.732
-341.241
-253.889
-176.337
-107.345
-45.7588
10
-2390.76
-2390.76
-2419.19
-2476.2
-2562.25
-2676.58
-2815.49
-2971.83
-3137.15
-3301.21
-3449.43
-3560.14
-3603.72
-3552.13
-3407.77
-3193.28
-2935.92
-2658.89
-2378.98
-2107.09
-1849.82
-1610.68
-1391.17
-1191.52
-1011.24
-849.356
-704.549
-575.397
-460.401
-358.08
-267.021
-185.905
-113.525
-48.7585
10
-2376.97
-2376.97
-2406.15
-2464.86
-2554.54
-2675.49
-2824.4
-2992.91
-3173.5
-3358.14
-3535.44
-3685.66
-3769.16
-3728.04
-3571.27
-3335.21
-3055.88
-2759.97
-2464.86
-2180.89
-1913.89
-1666.71
-1440.38
-1234.79
-1049.18
-882.411
-733.04
-599.584
-480.512
-374.332
-279.623
-195.063
-119.446
-51.6533
10
-2326.31
-2326.31
-2355.96
-2416.3
-2511.84
-2646.96
-2819.39
-3011.97
-3220.09
-3441.92
-3673.73
-3908.84
-4113.23
-4075.9
-3865.19
-3566.39
-3234.47
-2899.16
-2575.54
-2270.84
-1988.4
-1729.32
-1493.49
-1280.08
-1087.86
-915.331
-760.86
-622.817
-499.576
-389.578
-291.353
-203.545
-124.919
-54.3388
10
-2242.72
-2242.72
-2270.67
-2328.71
-2427.35
-2583.47
-2802.15
-3025.47
-3264.68
-3530.49
-3834.42
-4228.64
-4818.19
-4691.69
-4314.53
-3882.72
-3460.64
-3066.3
-2703.43
-2371.64
-2069.67
-1795.9
-1548.62
-1326
-1126.18
-947.266
-787.333
-644.55
-517.15
-403.464
-301.939
-211.152
-129.817
-56.7528
10
-2135.11
-2135.11
-2156.91
-2202.22
-2287.45
-2467.58
-2802.15
-3025.47
-3264.68
-3530.49
-3834.42
-4228.64
-6703.68
-5736.9
-4904.55
-4244.65
-3703.29
-3241.07
-2835.8
-2475.24
-2152.42
-1862.84
-1603.16
-1370.61
-1162.69
-977.092
-811.579
-664.095
-532.695
-415.575
-311.073
-217.671
-134.008
-58.8344
10
-2018.86
-2018.86
-2030.32
-2048.66
-2070.17
-2070.17
-2802.15
-3025.47
-3264.68
-3834.42
-3834.42
-4228.64
-10376
-6876.81
-5411.17
-4544.39
-3912.87
-3399.79
-2960.34
-2574.49
-2232.04
-1926.86
-1654.66
-1411.98
-1195.85
-1003.57
-832.594
-680.639
-545.562
-425.401
-318.365
-222.824
-137.315
-60.4986
10
-1912.72
-1912.72
-1916.73
-1918.52
-1912.67
-1912.67
0
0
0
-8800.86
-8800.86
-8923.59
-7383.79
-6310.88
-5405.9
-4669.04
-4055.99
-3530.88
-3071.96
-2666.39
-2306.27
-1986.07
-1701.43
-1448.63
-1224.35
-1025.55
-849.403
-693.351
-555.049
-432.361
-323.35
-226.259
-139.505
-61.6261
10
-1828.29
-1828.29
-1828.7
-1824.19
-1812.1
-1812.1
0
0
0
-7951.77
-7951.77
-7495.28
-6760.36
-6060.46
-5384.19
-4750.1
-4169.69
-3644.73
-3172.91
-2750.59
-2373.93
-2039.05
-1742.08
-1479.27
-1247.03
-1042.02
-861.091
-701.42
-560.437
-435.822
-325.487
-227.54
-140.264
-62.0503
10
-1768.94
-1768.94
-1768
-1762.04
-1749.83
-1749.83
0
0
0
-7360.97
-7360.97
-7028.42
-6554.17
-6008.92
-5428.15
-4842.91
-4278.04
-3749.12
-3264.06
-2825.43
-2432.74
-2083.61
-1774.72
-1502.32
-1262.59
-1051.87
-866.714
-704.015
-560.972
-435.088
-324.134
-226.102
-139.154
-61.5211
10
-1732.56
-1732.56
-1731.3
-1725.82
-1715.47
-1715.47
0
0
0
-7063.07
-7063.07
-6847.67
-6500.17
-6040.67
-5507.81
-4942.58
-4378.98
-3840.42
-3340.67
-2886.12
-2478.43
-2116.25
-1796.59
-1515.66
-1269.4
-1053.85
-865.262
-700.27
-555.863
-429.39
-318.521
-221.188
-135.51
-59.6097
10
-1714.16
-1714.16
-1712.95
-1708.47
-1700.51
-1700.51
0
0
0
-6932.55
-6932.55
-6782.59
-6504.28
-6093.9
-5585.78
-5026.64
-4457.49
-3907.36
-3393.78
-2925.47
-2505.35
-2132.63
-1804.45
-1516.9
-1265.71
-1046.66
-855.737
-689.36
-544.349
-417.941
-307.762
-211.783
-128.245
-55.4548
10
-1707.53
-1707.53
-1706.66
-1702.85
-1696.8
-1696.8
0
0
0
-6887.14
-6887.14
-6767.8
-6521.37
-6132.43
-5632.87
-5072.58
-4496.62
-3937.13
-3413.68
-2936.13
-2507.98
-2128.67
-1795.33
-1503.96
-1250.1
-1029.34
-837.485
-670.806
-526.003
-400.24
-291.14
-196.774
-115.709
-47.1034
10
-1707.53
-1707.53
-1706.66
-1702.85
-1696.8
-1696.8
0
0
0
-6887.14
-6887.14
-6767.8
-6521.37
-6132.43
-5632.87
-5072.58
-4496.62
-3937.13
-3413.68
-2936.13
-2507.98
-2128.67
-1795.33
-1503.96
-1250.1
-1029.34
-837.485
-670.806
-526.003
-400.24
-291.14
-196.774
-115.709
-47.1034
10

SCALARS  u float
LOOKUP_TABLE default 
0.3625
-0.751254
-0.768511
-0.773727
-0.777815
-0.783126
0
0
0
-2.6793
-3.03232
-3.03967
-3.0325
-3.0085
-2.96994
-2.92136
-2.86732
-2.81153
-2.75665
-2.70448
-2.65616
-2.61235
-2.57336
-2.53924
-2.50989
-2.48507
-2.46446
-2.44773
-2.43449
-2.42436
-2.41697
-2.41195
-2.40896
-2.40767
-2.40767
1.40229
-0.838074
-0.880599
-0.902819
-0.927049
-1.25842
0
0
0
-5.45658
-6.22219
-6.29741
-6.3045
-6.26093
-6.18095
-6.07765
-5.96205
-5.8424
-5.72448
-5.61215
-5.5078
-5.41284
-5.32791
-5.25313
-5.18824
-5.13271
-5.08588
-5.04697
-5.01515
-4.98962
-4.96957
-4.95424
-4.94296
-4.93539
-4.93295
2.24381
-0.432619
-0.486209
-0.506428
-0.527345
-1.06129
0
0
0
-5.42541
-5.97253
-5.91683
-5.84621
-5.76103
-5.66643
-5.56857
-5.47213
-5.38029
-5.29513
-5.21803
-5.14976
-5.09064
-5.04061
-4.99931
-4.96616
-4.94041
-4.92127
-4.90789
-4.89944
-4.89513
-4.89427
-4.89621
-4.90046
-4.9069
-4.91101
3.00363
1.5229
0.314482
-0.122464
-0.163215
-0.885485
0
0
0
-5.36223
-5.72551
-5.5399
-5.3574
-5.20849
-5.09201
-4.99949
-4.92403
-4.86152
-4.80967
-4.76727
-4.73356
-4.70797
-4.68989
-4.67868
-4.67362
-4.67393
-4.67887
-4.68767
-4.69962
-4.71409
-4.73048
-4.74829
-4.76709
-4.78668
-4.79698
3.68351
3.62709
2.39044
1.83517
0.520867
-0.725175
0
0
0
-5.26196
-5.40163
-5.0928
-4.81667
-4.6246
-4.50387
-4.42966
-4.38351
-4.35523
-4.33931
-4.33278
-4.33384
-4.34133
-4.35434
-4.37207
-4.39378
-4.41878
-4.44639
-4.47603
-4.50712
-4.53918
-4.57177
-4.60451
-4.63704
-4.66913
-4.68537
4.28349
4.27082
4.19404
4.03077
2.58756
0.375422
0
0
0
-5.04393
-4.89143
-4.48675
-4.18392
-4.00802
-3.91738
-3.88401
-3.87944
-3.89107
-3.91287
-3.9417
-3.97574
-4.01379
-4.05499
-4.09861
-4.14406
-4.19079
-4.23833
-4.28623
-4.33414
-4.38172
-4.42868
-4.47475
-4.51967
-4.56322
-4.58497
4.80356
4.78406
4.74989
4.68935
4.47673
2.2362
0
0
0
-4.72516
-4.02512
-3.53104
-3.37641
-3.42242
-3.38631
-3.41025
-3.45387
-3.50607
-3.56294
-3.62273
-3.6844
-3.74732
-3.81098
-3.87497
-3.93896
-4.00265
-4.06576
-4.12806
-4.18932
-4.24938
-4.30806
-4.36521
-4.42064
-4.47414
-4.50074
5.24373
2.84065
2.19206
2.04084
1.80939
1.41894
0.319717
0.241024
0.190727
-2.72915
-2.8618
-2.22952
-2.24375
-2.90128
-2.99222
-3.07916
-3.16249
-3.24383
-3.32398
-3.40327
-3.48181
-3.55966
-3.63678
-3.7131
-3.78852
-3.86292
-3.93613
-4.00802
-4.07848
-4.14739
-4.21467
-4.28023
-4.34393
-4.40558
-4.43622
5.60401
-0.789016
-1.45572
-1.59843
-1.78499
-1.9942
-2.29512
-2.45195
-2.56254
-2.65541
-2.6343
-2.39544
-2.48531
-2.81808
-2.88526
-2.96531
-3.04628
-3.12683
-3.20723
-3.28776
-3.36849
-3.44939
-3.53031
-3.61106
-3.69142
-3.77114
-3.8499
-3.92747
-4.00369
-4.07842
-4.15138
-4.22232
-4.2913
-4.35873
-4.39248
5.88433
-2.39416
-2.44927
-2.47292
-2.49651
-2.51539
-2.54305
-2.55978
-2.56435
-2.5601
-2.54158
-2.50034
-2.56574
-2.69943
-2.78141
-2.86168
-2.94242
-3.02403
-3.10664
-3.19016
-3.27438
-3.35911
-3.44406
-3.52873
-3.61236
-3.69437
-3.77452
-3.8526
-3.92832
-4.00158
-4.07264
-4.14184
-4.20942
-4.27555
-4.30862
6.08462
-2.5504
-2.58028
-2.57846
-2.57126
-2.55948
-2.54793
-2.53753
-2.52749
-2.5191
-2.51444
-2.52105
-2.5656
-2.63915
-2.71391
-2.7901
-2.86817
-2.948
-3.0293
-3.11176
-3.19494
-3.27821
-3.36103
-3.44318
-3.5247
-3.60561
-3.68569
-3.76467
-3.8425
-3.91904
-3.99406
-4.06738
-4.13894
-4.20872
-4.24353
6.20483
-2.55124
-2.57788
-2.57151
-2.55976
-2.54425
-2.52777
-2.51249
-2.49986
-2.49229
-2.49358
-2.50989
-2.54881
-2.60697
-2.67436
-2.74678
-2.82259
-2.90101
-2.98152
-3.06357
-3.14666
-3.23044
-3.31454
-3.39851
-3.48192
-3.56445
-3.64586
-3.72592
-3.80452
-3.88152
-3.95686
-4.03047
-4.10233
-4.17247
-4.20749
6.24493
-2.54657
-2.57253
-2.56504
-2.55201
-2.53499
-2.5163
-2.49818
-2.48278
-2.47315
-2.47376
-2.49066
-2.52899
-2.58605
-2.65408
-2.72827
-2.80623
-2.88678
-2.96924
-3.05306
-3.13775
-3.22287
-3.308
-3.39272
-3.47667
-3.55954
-3.64109
-3.7211
-3.79946
-3.87608
-3.9509
-4.02394
-4.09521
-4.16479
-4.19954
6.20485
-2.55507
-2.58154
-2.57449
-2.56137
-2.54353
-2.5235
-2.50319
-2.48385
-2.46798
-2.46033
-2.47008
-2.5108
-2.57758
-2.65411
-2.73483
-2.81775
-2.90206
-2.98734
-3.07322
-3.15934
-3.24538
-3.33097
-3.41579
-3.49954
-3.58197
-3.66286
-3.74207
-3.81949
-3.89507
-3.96879
-4.04069
-4.11083
-4.1793
-4.21353
6.08465
-2.55972
-2.58966
-2.58684
-2.57739
-2.56165
-2.54391
-2.5245
-2.50192
-2.47738
-2.45281
-2.43941
-2.48863
-2.58689
-2.68089
-2.77236
-2.8623
-2.95115
-3.03917
-3.12647
-3.21303
-3.29876
-3.38351
-3.46708
-3.5493
-3.62998
-3.70899
-3.78624
-3.86165
-3.93521
-4.00695
-4.07692
-4.1452
-4.21191
-4.24529
5.88436
-2.39277
-2.46441
-2.48758
-2.50909
-2.52399
-2.54517
-2.55123
-2.5389
-2.51144
-2.45871
-2.36084
-2.4505
-2.65518
-2.76243
-2.86229
-2.95705
-3.04789
-3.13583
-3.22164
-3.30577
-3.38845
-3.46973
-3.54961
-3.62801
-3.70485
-3.78005
-3.85357
-3.92539
-3.9955
-4.06397
-4.13086
-4.19627
-4.26032
-4.29242
5.60402
0.469748
-1.45569
-1.6056
-1.79151
-1.99855
-2.29534
-2.44364
-2.53202
-2.60539
-2.54935
-2.09795
-2.23126
-2.78314
-2.87655
-2.98263
-3.08285
-3.17629
-3.26444
-3.34868
-3.4299
-3.50868
-3.58538
-3.66021
-3.73329
-3.80471
-3.8745
-3.94271
-4.00939