# vtk DataFile Version 3.0
vtk output423
ASCII
DATASET STRUCTURED_GRID
DIMENSIONS 51 26 1
POINTS 1326 float
0 0 0
0.4 0 0
0.8 0 0
1.2 0 0
1.6 0 0
2 0 0
2.4 0 0
2.8 0 0
3.2 0 0
3.6 0 0
4 0 0
4.4 0 0
4.8 0 0
5.2 0 0
5.6 0 0
6 0 0
6.4 0 0
6.8 0 0
7.2 0 0
7.6 0 0
8 0 0
8.4 0 0
8.8 0 0
9.2 0 0
9.6 0 0
10 0 0
10.4 0 0
10.8 0 0
11.2 0 0
11.6 0 0
12 0 0
12.4 0 0
12.8 0 0
13.2 0 0
13.6 0 0
14 0 0
14.4 0 0
14.8 0 0
15.2 0 0
15.6 0 0
16 0 0
16.4 0 0
16.8 0 0
17.2 0 0
17.6 0 0
18 0 0
18.4 0 0
18.8 0 0
19.2 0 0
19.6 0 0
20 0 0
0 0.4 0
0.4 0.4 0
0.8 0.4 0
1.2 0.4 0
1.6 0.4 0
2 0.4 0
2.4 0.4 0
2.8 0.4 0
3.2 0.4 0
3.6 0.4 0
4 0.4 0
4.4 0.4 0
4.8 0.4 0
5.2 0.4 0
5.6 0.4 0
6 0.4 0
6.4 0.4 0
6.8 0.4 0
7.2 0.4 0
7.6 0.4 0
8 0.4 0
8.4 0.4 0
8.8 0.4 0
9.2 0.4 0
9.6 0.4 0
10 0.4 0
10.4 0.4 0
10.8 0.4 0
11.2 0.4 0
11.6 0.4 0
12 0.4 0
12.4 0.4 0
12.8 0.4 0
13.2 0.4 0
13.6 0.4 0
14 0.4 0
14.4 0.4 0
14.8 0.4 0
15.2 0.4 0
15.6 0.4 0
16 0.4 0
16.4 0.4 0
16.8 0.4 0
17.2 0.4 0
17.6 0.4 0
18 0.4 0
18.4 0.4 0
18.8 0.4 0
19.2 0.4 0
19.6 0.4 0
20 0.4 0
0 0.8 0
0.4 0.8 0
0.8 0.8 0
1.2 0.8 0
1.6 0.8 0
2 0.8 0
2.4 0.8 0
2.8 0.8 0
3.2 0.8 0
3.6 0.8 0
4 0.8 0
4.4 0.8 0
4.8 0.8 0
5.2 0.8 0
5.6 0.8 0
6 0.8 0
6.4 0.8 0
6.8 0.8 0
7.2 0.8 0
7.6 0.8 0
8 0.8 0
8.4 0.8 0
8.8 0.8 0
9.2 0.8 0
9.6 0.8 0
10 0.8 0
10.4 0.8 0
10.8 0.8 0
11.2 0.8 0
11.6 0.8 0
12 0.8 0
12.4 0.8 0
12.8 0.8 0
13.2 0.8 0
13.6 0.8 0
14 0.8 0
14.4 0.8 0
14.8 0.8 0
15.2 0.8 0
15.6 0.8 0
16 0.8 0
16.4 0.8 0
16.8 0.8 0
17.2 0.8 0
17.6 0.8 0
18 0.8 0
18.4 0.8 0
18.8 0.8 0
19.2 0.8 0
19.6 0.8 0
20 0.8 0
0 1.2 0
0.4 1.2 0
0.8 1.2 0
1.2 1.2 0
1.6 1.2 0
2 1.2 0
2.4 1.2 0
2.8 1.2 0
3.2 1.2 0
3.6 1.2 0
4 1.2 0
4.4 1.2 0
4.8 1.2 0
5.2 1.2 0
5.6 1.2 0
6 1.2 0
6.4 1.2 0
6.8 1.2 0
7.2 1.2 0
7.6 1.2 0
8 1.2 0
8.4 1.2 0
8.8 1.2 0
9.2 1.2 0
9.6 1.2 0
10 1.2 0
10.4 1.2 0
10.8 1.2 0
11.2 1.2 0
11.6 1.2 0
12 1.2 0
12.4 1.2 0
12.8 1.2 0
13.2 1.2 0
13.6 1.2 0
14 1.2 0
14.4 1.2 0
14.8 1.2 0
15.2 1.2 0
15.6 1.2 0
16 1.2 0
16.4 1.2 0
16.8 1.2 0
17.2 1.2 0
17.6 1.2 0
18 1.2 0
18.4 1.2 0
18.8 1.2 0
19.2 1.2 0
19.6 1.2 0
20 1.2 0
0 1.6 0
0.4 1.6 0
0.8 1.6 0
1.2 1.6 0
1.6 1.6 0
2 1.6 0
2.4 1.6 0
2.8 1.6 0
3.2 1.6 0
3.6 1.6 0
4 1.6 0
4.4 1.6 0
4.8 1.6 0
5.2 1.6 0
5.6 1.6 0
6 1.6 0
6.4 1.6 0
6.8 1.6 0
7.2 1.6 0
7.6 1.6 0
8 1.6 0
8.4 1.6 0
8.8 1.6 0
9.2 1.6 0
9.6 1.6 0
10 1.6 0
10.4 1.6 0
10.8 1.6 0
11.2 1.6 0
11.6 1.6 0
12 1.6 0
12.4 1.6 0
12.8 1.6 0
13.2 1.6 0
13.6 1.6 0
14 1.6 0
14.4 1.6 0
14.8 1.6 0
15.2 1.6 0
15.6 1.6 0
16 1.6 0
16.4 1.6 0
16.8 1.6 0
17.2 1.6 0
17.6 1.6 0
18 1.6 0
18.4 1.6 0
18.8 1.6 0
19.2 1.6 0
19.6 1.6 0
20 1.6 0
0 2 0
0.4 2 0
0.8 2 0
1.2 2 0
1.6 2 0
2 2 0
2.4 2 0
2.8 2 0
3.2 2 0
3.6 2 0
4 2 0
4.4 2 0
4.8 2 0
5.2 2 0
5.6 2 0
6 2 0
6.4 2 0
6.8 2 0
7.2 2 0
7.6 2 0
8 2 0
8.4 2 0
8.8 2 0
9.2 2 0
9.6 2 0
10 2 0
10.4 2 0
10.8 2 0
11.2 2 0
11.6 2 0
12 2 0
12.4 2 0
12.8 2 0
13.2 2 0
13.6 2 0
14 2 0
14.4 2 0
14.8 2 0
15.2 2 0
15.6 2 0
16 2 0
16.4 2 0
16.8 2 0
17.2 2 0
17.6 2 0
18 2 0
18.4 2 0
18.8 2 0
19.2 2 0
19.6 2 0
20 2 0
0 2.4 0
0.4 2.4 0
0.8 2.4 0
1.2 2.4 0
1.6 2.4 0
2 2.4 0
2.4 2.4 0
2.8 2.4 0
3.2 2.4 0
3.6 2.4 0
4 2.4 0
4.4 2.4 0
4.8 2.4 0
5.2 2.4 0
5.6 2.4 0
6 2.4 0
6.4 2.4 0
6.8 2.4 0
7.2 2.4 0
7.6 2.4 0
8 2.4 0
8.4 2.4 0
8.8 2.4 0
9.2 2.4 0
9.6 2.4 0
10 2.4 0
10.4 2.4 0
10.8 2.4 0
11.2 2.4 0
11.6 2.4 0
12 2.4 0
12.4 2.4 0
12.8 2.4 0
13.2 2.4 0
13.6 2.4 0
14 2.4 0
14.4 2.4 0
14.8 2.4 0
15.2 2.4 0
15.6 2.4 0
16 2.4 0
16.4 2.4 0
16.8 2.4 0
17.2 2.4 0
17.6 2.4 0
18 2.4 0
18.4 2.4 0
18.8 2.4 0
19.2 2.4 0
19.6 2.4 0
20 2.4 0
0 2.8 0
0.4 2.8 0
0.8 2.8 0
1.2 2.8 0
1.6 2.8 0
2 2.8 0
2.4 2.8 0
2.8 2.8 0
3.2 2.8 0
3.6 2.8 0
4 2.8 0
4.4 2.8 0
4.8 2.8 0
5.2 2.8 0
5.6 2.8 0
6 2.8 0
6.4 2.8 0
6.8 2.8 0
7.2 2.8 0
7.6 2.8 0
8 2.8 0
8.4 2.8 0
8.8 2.8 0
9.2 2.8 0
9.6 2.8 0
10 2.8 0
10.4 2.8 0
10.8 2.8 0
11.2 2.8 0
11.6 2.8 0
12 2.8 0
12.4 2.8 0
12.8 2.8 0
13.2 2.8 0
13.6 2.8 0
14 2.8 0
14.4 2.8 0
14.8 2.8 0
15.2 2.8 0
15.6 2.8 0
16 2.8 0
16.4 2.8 0
16.8 2.8 0
17.2 2.8 0
17.6 2.8 0
18 2.8 0
18.4 2.8 0
18.8 2.8 0
19.2 2.8 0
19.6 2.8 0
20 2.8 0
0 3.2 0
0.4 3.2 0
0.8 3.2 0
1.2 3.2 0
1.6 3.2 0
2 3.2 0
2.4 3.2 0
2.8 3.2 0
3.2 3.2 0
3.6 3.2 0
4 3.2 0
4.4 3.2 0
4.8 3.2 0
5.2 3.2 0
5.6 3.2 0
6 3.2 0
6.4 3.2 0
6.8 3.2 0
7.2 3.2 0
7.6 3.2 0
8 3.2 0
8.4 3.2 0
8.8 3.2 0
9.2 3.2 0
9.6 3.2 0
10 3.2 0
10.4 3.2 0
10.8 3.2 0
11.2 3.2 0
11.6 3.2 0
12 3.2 0
12.4 3.2 0
12.8 3.2 0
13.2 3.2 0
13.6 3.2 0
14 3.2 0
14.4 3.2 0
14.8 3.2 0
15.2 3.2 0
15.6 3.2 0
16 3.2 0
16.4 3.2 0
16.8 3.2 0
17.2 3.2 0
17.6 3.2 0
18 3.2 0
18.4 3.2 0
18.8 3.2 0
19.2 3.2 0
19.6 3.2 0
20 3.2 0
0 3.6 0
0.4 3.6 0
0.8 3.6 0
1.2 3.6 0
1.6 3.6 0
2 3.6 0
2.4 3.6 0
2.8 3.6 0
3.2 3.6 0
3.6 3.6 0
4 3.6 0
4.4 3.6 0
4.8 3.6 0
5.2 3.6 0
5.6 3.6 0
6 3.6 0
6.4 3.6 0
6.8 3.6 0
7.2 3.6 0
7.6 3.6 0
8 3.6 0
8.4 3.6 0
8.8 3.6 0
9.2 3.6 0
9.6 3.6 0
10 3.6 0
10.4 3.6 0
10.8 3.6 0
11.2 3.6 0
11.6 3.6 0
12 3.6 0
12.4 3.6 0
12.8 3.6 0
13.2 3.6 0
13.6 3.6 0
14 3.6 0
14.4 3.6 0
14.8 3.6 0
15.2 3.6 0
15.6 3.6 0
16 3.6 0
16.4 3.6 0
16.8 3.6 0
17.2 3.6 0
17.6 3.6 0
18 3.6 0
18.4 3.6 0
18.8 3.6 0
19.2 3.6 0
19.6 3.6 0
20 3.6 0
0 4 0
0.4 4 0
0.8 4 0
1.2 4 0
1.6 4 0
2 4 0
2.4 4 0
2.8 4 0
3.2 4 0
3.6 4 0
4 4 0
4.4 4 0
4.8 4 0
5.2 4 0
5.6 4 0
6 4 0
6.4 4 0
6.8 4 0
7.2 4 0
7.6 4 0
8 4 0
8.4 4 0
8.8 4 0
9.2 4 0
9.6 4 0
10 4 0
10.4 4 0
10.8 4 0
11.2 4 0
11.6 4 0
12 4 0
12.4 4 0
12.8 4 0
13.2 4 0
13.6 4 0
14 4 0
14.4 4 0
14.8 4 0
15.2 4 0
15.6 4 0
16 4 0
16.4 4 0
16.8 4 0
17.2 4 0
17.6 4 0
18 4 0
18.4 4 0
18.8 4 0
19.2 4 0
19.6 4 0
20 4 0
0 4.4 0
0.4 4.4 0
0.8 4.4 0
1.2 4.4 0
1.6 4.4 0
2 4.4 0
2.4 4.4 0
2.8 4.4 0
3.2 4.4 0
3.6 4.4 0
4 4.4 0
4.4 4.4 0
4.8 4.4 0
5.2 4.4 0
5.6 4.4 0
6 4.4 0
6.4 4.4 0
6.8 4.4 0
7.2 4.4 0
7.6 4.4 0
8 4.4 0
8.4 4.4 0
8.8 4.4 0
9.2 4.4 0
9.6 4.4 0
10 4.4 0
10.4 4.4 0
10.8 4.4 0
11.2 4.4 0
11.6 4.4 0
12 4.4 0
12.4 4.4 0
12.8 4.4 0
13.2 4.4 0
13.6 4.4 0
14 4.4 0
14.4 4.4 0
14.8 4.4 0
15.2 4.4 0
15.6 4.4 0
16 4.4 0
16.4 4.4 0
16.8 4.4 0
17.2 4.4 0
17.6 4.4 0
18 4.4 0
18.4 4.4 0
18.8 4.4 0
19.2 4.4 0
19.6 4.4 0
20 4.4 0
0 4.8 0
0.4 4.8 0
0.8 4.8 0
1.2 4.8 0
1.6 4.8 0
2 4.8 0
2.4 4.8 0
2.8 4.8 0
3.2 4.8 0
3.6 4.8 0
4 4.8 0
4.4 4.8 0
4.8 4.8 0
5.2 4.8 0
5.6 4.8 0
6 4.8 0
6.4 4.8 0
6.8 4.8 0
7.2 4.8 0
7.6 4.8 0
8 4.8 0
8.4 4.8 0
8.8 4.8 0
9.2 4.8 0
9.6 4.8 0
10 4.8 0
10.4 4.8 0
10.8 4.8 0
11.2 4.8 0
11.6 4.8 0
12 4.8 0
12.4 4.8 0
12.8 4.8 0
13.2 4.8 0
13.6 4.8 0
14 4.8 0
14.4 4.8 0
14.8 4.8 0
15.2 4.8 0
15.6 4.8 0
16 4.8 0
16.4 4.8 0
16.8 4.8 0
17.2 4.8 0
17.6 4.8 0
18 4.8 0
18.4 4.8 0
18.8 4.8 0
19.2 4.8 0
19.6 4.8 0
20 4.8 0
0 5.2 0
0.4 5.2 0
0.8 5.2 0
1.2 5.2 0
1.6 5.2 0
2 5.2 0
2.4 5.2 0
2.8 5.2 0
3.2 5.2 0
3.6 5.2 0
4 5.2 0
4.4 5.2 0
4.8 5.2 0
5.2 5.2 0
5.6 5.2 0
6 5.2 0
6.4 5.2 0
6.8 5.2 0
7.2 5.2 0
7.6 5.2 0
8 5.2 0
8.4 5.2 0
8.8 5.2 0
9.2 5.2 0
9.6 5.2 0
10 5.2 0
10.4 5.2 0
10.8 5.2 0
11.2 5.2 0
11.6 5.2 0
12 5.2 0
12.4 5.2 0
12.8 5.2 0
13.2 5.2 0
13.6 5.2 0
14 5.2 0
14.4 5.2 0
14.8 5.2 0
15.2 5.2 0
15.6 5.2 0
16 5.2 0
16.4 5.2 0
16.8 5.2 0
17.2 5.2 0
17.6 5.2 0
18 5.2 0
18.4 5.2 0
18.8 5.2 0
19.2 5.2 0
19.6 5.2 0
20 5.2 0
0 5.6 0
0.4 5.6 0
0.8 5.6 0
1.2 5.6 0
1.6 5.6 0
2 5.6 0
2.4 5.6 0
2.8 5.6 0
3.2 5.6 0
3.6 5.6 0
4 5.6 0
4.4 5.6 0
4.8 5.6 0
5.2 5.6 0
5.6 5.6 0
6 5.6 0
6.4 5.6 0
6.8 5.6 0
7.2 5.6 0
7.6 5.6 0
8 5.6 0
8.4 5.6 0
8.8 5.6 0
9.2 5.6 0
9.6 5.6 0
10 5.6 0
10.4 5.6 0
10.8 5.6 0
11.2 5.6 0
11.6 5.6 0
12 5.6 0
12.4 5.6 0
12.8 5.6 0
13.2 5.6 0
13.6 5.6 0
14 5.6 0
14.4 5.6 0
14.8 5.6 0
15.2 5.6 0
15.6 5.6 0
16 5.6 0
16.4 5.6 0
16.8 5.6 0
17.2 5.6 0
17.6 5.6 0
18 5.6 0
18.4 5.6 0
18.8 5.6 0
19.2 5.6 0
19.6 5.6 0
20 5.6 0
0 6 0
0.4 6 0
0.8 6 0
1.2 6 0
1.6 6 0
2 6 0
2.4 6 0
2.8 6 0
3.2 6 0
3.6 6 0
4 6 0
4.4 6 0
4.8 6 0
5.2 6 0
5.6 6 0
6 6 0
6.4 6 0
6.8 6 0
7.2 6 0
7.6 6 0
8 6 0
8.4 6 0
8.8 6 0
9.2 6 0
9.6 6 0
10 6 0
10.4 6 0
10.8 6 0
11.2 6 0
11.6 6 0
12 6 0
12.4 6 0
12.8 6 0
13.2 6 0
13.6 6 0
14 6 0
14.4 6 0
14.8 6 0
15.2 6 0
15.6 6 0
16 6 0
16.4 6 0
16.8 6 0
17.2 6 0
17.6 6 0
18 6 0
18.4 6 0
18.8 6 0
19.2 6 0
19.6 6 0
20 6 0
0 6.4 0
0.4 6.4 0
0.8 6.4 0
1.2 6.4 0
1.6 6.4 0
2 6.4 0
2.4 6.4 0
2.8 6.4 0
3.2 6.4 0
3.6 6.4 0
4 6.4 0
4.4 6.4 0
4.8 6.4 0
5.2 6.4 0
5.6 6.4 0
6 6.4 0
6.4 6.4 0
6.8 6.4 0
7.2 6.4 0
7.6 6.4 0
8 6.4 0
8.4 6.4 0
8.8 6.4 0
9.2 6.4 0
9.6 6.4 0
10 6.4 0
10.4 6.4 0
10.8 6.4 0
11.2 6.4 0
11.6 6.4 0
12 6.4 0
12.4 6.4 0
12.8 6.4 0
13.2 6.4 0
13.6 6.4 0
14 6.4 0
14.4 6.4 0
14.8 6.4 0
15.2 6.4 0
15.6 6.4 0
16 6.4 0
16.4 6.4 0
16.8 6.4 0
17.2 6.4 0
17.6 6.4 0
18 6.4 0
18.4 6.4 0
18.8 6.4 0
19.2 6.4 0
19.6 6.4 0
20 6.4 0
0 6.8 0
0.4 6.8 0
0.8 6.8 0
1.2 6.8 0
1.6 6.8 0
2 6.8 0
2.4 6.8 0
2.8 6.8 0
3.2 6.8 0
3.6 6.8 0
4 6.8 0
4.4 6.8 0
4.8 6.8 0
5.2 6.8 0
5.6 6.8 0
6 6.8 0
6.4 6.8 0
6.8 6.8 0
7.2 6.8 0
7.6 6.8 0
8 6.8 0
8.4 6.8 0
8.8 6.8 0
9.2 6.8 0
9.6 6.8 0
10 6.8 0
10.4 6.8 0
10.8 6.8 0
11.2 6.8 0
11.6 6.8 0
12 6.8 0
12.4 6.8 0
12.8 6.8 0
13.2 6.8 0
13.6 6.8 0
14 6.8 0
14.4 6.8 0
14.8 6.8 0
15.2 6.8 0
15.6 6.8 0
16 6.8 0
16.4 6.8 0
16.8 6.8 0
17.2 6.8 0
17.6 6.8 0
18 6.8 0
18.4 6.8 0
18.8 6.8 0
19.2 6.8 0
19.6 6.8 0
20 6.8 0
0 7.2 0
0.4 7.2 0
0.8 7.2 0
1.2 7.2 0
1.6 7.2 0
2 7.2 0
2.4 7.2 0
2.8 7.2 0
3.2 7.2 0
3.6 7.2 0
4 7.2 0
4.4 7.2 0
4.8 7.2 0
5.2 7.2 0
5.6 7.2 0
6 7.2 0
6.4 7.2 0
6.8 7.2 0
7.2 7.2 0
7.6 7.2 0
8 7.2 0
8.4 7.2 0
8.8 7.2 0
9.2 7.2 0
9.6 7.2 0
10 7.2 0
10.4 7.2 0
10.8 7.2 0
11.2 7.2 0
11.6 7.2 0
12 7.2 0
12.4 7.2 0
12.8 7.2 0
13.2 7.2 0
13.6 7.2 0
14 7.2 0
14.4 7.2 0
14.8 7.2 0
15.2 7.2 0
15.6 7.2 0
16 7.2 0
16.4 7.2 0
16.8 7.2 0
17.2 7.2 0
17.6 7.2 0
18 7.2 0
18.4 7.2 0
18.8 7.2 0
19.2 7.2 0
19.6 7.2 0
20 7.2 0
0 7.6 0
0.4 7.6 0
0.8 7.6 0
1.2 7.6 0
1.6 7.6 0
2 7.6 0
2.4 7.6 0
2.8 7.6 0
3.2 7.6 0
3.6 7.6 0
4 7.6 0
4.4 7.6 0
4.8 7.6 0
5.2 7.6 0
5.6 7.6 0
6 7.6 0
6.4 7.6 0
6.8 7.6 0
7.2 7.6 0
7.6 7.6 0
8 7.6 0
8.4 7.6 0
8.8 7.6 0
9.2 7.6 0
9.6 7.6 0
10 7.6 0
10.4 7.6 0
10.8 7.6 0
11.2 7.6 0
11.6 7.6 0
12 7.6 0
12.4 7.6 0
12.8 7.6 0
13.2 7.6 0
13.6 7.6 0
14 7.6 0
14.4 7.6 0
14.8 7.6 0
15.2 7.6 0
15.6 7.6 0
16 7.6 0
16.4 7.6 0
16.8 7.6 0
17.2 7.6 0
17.6 7.6 0
18 7.6 0
18.4 7.6 0
18.8 7.6 0
19.2 7.6 0
19.6 7.6 0
20 7.6 0
0 8 0
0.4 8 0
0.8 8 0
1.2 8 0
1.6 8 0
2 8 0
2.4 8 0
2.8 8 0
3.2 8 0
3.6 8 0
4 8 0
4.4 8 0
4.8 8 0
5.2 8 0
5.6 8 0
6 8 0
6.4 8 0
6.8 8 0
7.2 8 0
7.6 8 0
8 8 0
8.4 8 0
8.8 8 0
9.2 8 0
9.6 8 0
10 8 0
10.4 8 0
10.8 8 0
11.2 8 0
11.6 8 0
12 8 0
12.4 8 0
12.8 8 0
13.2 8 0
13.6 8 0
14 8 0
14.4 8 0
14.8 8 0
15.2 8 0
15.6 8 0
16 8 0
16.4 8 0
16.8 8 0
17.2 8 0
17.6 8 0
18 8 0
18.4 8 0
18.8 8 0
19.2 8 0
19.6 8 0
20 8 0
0 8.4 0
0.4 8.4 0
0.8 8.4 0
1.2 8.4 0
1.6 8.4 0
2 8.4 0
2.4 8.4 0
2.8 8.4 0
3.2 8.4 0
3.6 8.4 0
4 8.4 0
4.4 8.4 0
4.8 8.4 0
5.2 8.4 0
5.6 8.4 0
6 8.4 0
6.4 8.4 0
6.8 8.4 0
7.2 8.4 0
7.6 8.4 0
8 8.4 0
8.4 8.4 0
8.8 8.4 0
9.2 8.4 0
9.6 8.4 0
10 8.4 0
10.4 8.4 0
10.8 8.4 0
11.2 8.4 0
11.6 8.4 0
12 8.4 0
12.4 8.4 0
12.8 8.4 0
13.2 8.4 0
13.6 8.4 0
14 8.4 0
14.4 8.4 0
14.8 8.4 0
15.2 8.4 0
15.6 8.4 0
16 8.4 0
16.4 8.4 0
16.8 8.4 0
17.2 8.4 0
17.6 8.4 0
18 8.4 0
18.4 8.4 0
18.8 8.4 0
19.2 8.4 0
19.6 8.4 0
20 8.4 0
0 8.8 0
0.4 8.8 0
0.8 8.8 0
1.2 8.8 0
1.6 8.8 0
2 8.8 0
2.4 8.8 0
2.8 8.8 0
3.2 8.8 0
3.6 8.8 0
4 8.8 0
4.4 8.8 0
4.8 8.8 0
5.2 8.8 0
5.6 8.8 0
6 8.8 0
6.4 8.8 0
6.8 8.8 0
7.2 8.8 0
7.6 8.8 0
8 8.8 0
8.4 8.8 0
8.8 8.8 0
9.2 8.8 0
9.6 8.8 0
10 8.8 0
10.4 8.8 0
10.8 8.8 0
11.2 8.8 0
11.6 8.8 0
12 8.8 0
12.4 8.8 0
12.8 8.8 0
13.2 8.8 0
13.6 8.8 0
14 8.8 0
14.4 8.8 0
14.8 8.8 0
15.2 8.8 0
15.6 8.8 0
16 8.8 0
16.4 8.8 0
16.8 8.8 0
17.2 8.8 0
17.6 8.8 0
18 8.8 0
18.4 8.8 0
18.8 8.8 0
19.2 8.8 0
19.6 8.8 0
20 8.8 0
0 9.2 0
0.4 9.2 0
0.8 9.2 0
1.2 9.2 0
1.6 9.2 0
2 9.2 0
2.4 9.2 0
2.8 9.2 0
3.2 9.2 0
3.6 9.2 0
4 9.2 0
4.4 9.2 0
4.8 9.2 0
5.2 9.2 0
5.6 9.2 0
6 9.2 0
6.4 9.2 0
6.8 9.2 0
7.2 9.2 0
7.6 9.2 0
8 9.2 0
8.4 9.2 0
8.8 9.2 0
9.2 9.2 0
9.6 9.2 0
10 9.2 0
10.4 9.2 0
10.8 9.2 0
11.2 9.2 0
11.6 9.2 0
12 9.2 0
12.4 9.2 0
12.8 9.2 0
13.2 9.2 0
13.6 9.2 0
14 9.2 0
14.4 9.2 0
14.8 9.2 0
15.2 9.2 0
15.6 9.2 0
16 9.2 0
16.4 9.2 0
16.8 9.2 0
17.2 9.2 0
17.6 9.2 0
18 9.2 0
18.4 9.2 0
18.8 9.2 0
19.2 9.2 0
19.6 9.2 0
20 9.2 0
0 9.6 0
0.4 9.6 0
0.8 9.6 0
1.2 9.6 0
1.6 9.6 0
2 9.6 0
2.4 9.6 0
2.8 9.6 0
3.2 9.6 0
3.6 9.6 0
4 9.6 0
4.4 9.6 0
4.8 9.6 0
5.2 9.6 0
5.6 9.6 0
6 9.6 0
6.4 9.6 0
6.8 9.6 0
7.2 9.6 0
7.6 9.6 0
8 9.6 0
8.4 9.6 0
8.8 9.6 0
9.2 9.6 0
9.6 9.6 0
10 9.6 0
10.4 9.6 0
10.8 9.6 0
11.2 9.6 0
11.6 9.6 0
12 9.6 0
12.4 9.6 0
12.8 9.6 0
13.2 9.6 0
13.6 9.6 0
14 9.6 0
14.4 9.6 0
14.8 9.6 0
15.2 9.6 0
15.6 9.6 0
16 9.6 0
16.4 9.6 0
16.8 9.6 0
17.2 9.6 0
17.6 9.6 0
18 9.6 0
18.4 9.6 0
18.8 9.6 0
19.2 9.6 0
19.6 9.6 0
20 9.6 0
0 10 0
0.4 10 0
0.8 10 0
1.2 10 0
1.6 10 0
2 10 0
2.4 10 0
2.8 10 0
3.2 10 0
3.6 10 0
4 10 0
4.4 10 0
4.8 10 0
5.2 10 0
5.6 10 0
6 10 0
6.4 10 0
6.8 10 0
7.2 10 0
7.6 10 0
8 10 0
8.4 10 0
8.8 10 0
9.2 10 0
9.6 10 0
10 10 0
10.4 10 0
10.8 10 0
11.2 10 0
11.6 10 0
12 10 0
12.4 10 0
12.8 10 0
13.2 10 0
13.6 10 0
14 10 0
14.4 10 0
14.8 10 0
15.2 10 0
15.6 10 0
16 10 0
16.4 10 0
16.8 10 0
17.2 10 0
17.6 10 0
18 10 0
18.4 10 0
18.8 10 0
19.2 10 0
19.6 10 0
20 10 0

CELL_DATA 1250
SCALARS phi float
LOOKUP_TABLE default 
4.711
4.711
4.711
4.711
4.711
4.711
4.711
4.711
4.711
4.711
4.711
4.711
4.711
4.711
4.711
4.711
4.711
4.711
4.711
4.711
4.711
4.711
4.711
4.711
4.711
4.711
4.711
4.711
4.711
4.711
4.711
4.711
4.711
4.711
4.711
4.711
4.711
4.711
4.711
4.711
4.711
4.711
4.711
4.711
4.711
4.711
4.711
4.711
4.711
4.711
4.711
4.711
4.711
4.711
4.711
4.711
4.711
4.711
4.711
4.711
4.711
4.711
4.711
4.711
4.711
4.711
4.711
4.711
4.711
4.711
4.711
4.711
4.711
4.711
4.711
4.711
4.711
4.711
4.711
4.711
4.711
4.711
4.711
4.711
4.711
4.711
4.711
4.711
4.711
4.711
4.711
4.711
4.711
4.711
4.711
4.711
4.711
4.711
4.711
4.711
4.711
4.711
4.711
4.711
4.711
4.711
4.711
4.711
4.711
4.711
4.711
4.711
4.711
4.711
4.711
4.711
4.711
4.711
4.711
4.711
4.711
4.711
4.711
4.711
4.711
4.711
4.711
4.711
4.711
4.711
4.711
4.711
4.711
4.711
4.711
4.711
4.711
4.711
4.711
4.711
4.711
4.711
4.711
4.711
4.711
4.711
4.711
4.711
4.711
4.711
4.711
4.711
4.711
4.711
4.711
4.711
4.711
4.711
4.711
4.711
4.711
4.711
4.711
4.711
4.711
4.711
4.711
4.711
4.711
4.711
4.711
4.711
4.711
4.711
4.711
4.711
4.711
4.711
4.711
4.711
4.711
4.711
4.711
4.711
4.711
4.711
4.711
4.711
4.711
4.711
4.711
4.711
4.711
4.711
4.711
4.711
4.711
4.711
4.711
4.711
4.711
4.711
4.711
4.711
4.711
4.711
4.711
4.711
4.711
4.711
4.711
4.711
4.711
4.711
4.711
4.711
4.711
4.711
4.711
4.711
4.711
4.711
4.711
4.711
4.711
4.711
4.711
4.711
4.711
4.711
4.711
4.711
4.711
4.711
4.711
4.711
4.711
4.711
4.711
4.711
4.711
4.711
4.711
4.711
4.711
4.711
4.711
4.711
4.711
4.711
4.711
4.711
4.711
4.711
4.711
4.711
4.711
4.711
4.711
4.711
4.711
4.711
4.711
4.711
4.711
4.711
4.711
4.711
4.711
4.711
4.711
4.711
4.711
4.711
4.711
4.711
4.711
4.711
4.711
4.711
4.711
4.711
4.711
4.711
4.711
4.711
4.711
4.711
4.711
4.711
4.711
4.711
4.711
4.711
4.711
4.711
4.711
4.711
4.711
4.711
4.711
4.711
4.711
4.711
4.711
4.711
4.711
4.711
4.711
4.711
4.711
4.711
4.711
4.711
4.711
4.711
4.711
4.711
4.711
4.711
4.711
4.711
4.711
4.711
4.711
4.711
4.711
4.711
4.711
4.711
4.711
4.711
4.711
4.711
4.711
4.711
4.711
4.711
4.711
4.711
4.711
4.711
4.711
4.711
4.711
4.711
4.711
4.711
4.711
4.711
4.711
4.711
4.711
4.711
4.711
4.711
4.711
4.711
4.711
4.711
4.711
4.711
4.711
4.711
4.711
4.711
4.711
4.711
4.711
4.711
4.711
4.711
4.711
4.711
4.711
4.711
4.711
4.711
4.711
4.711
4.711
4.711
4.711
4.711
4.711
4.711
4.711
4.711
4.711
4.711
4.711
4.711
4.711
4.711
4.711
4.711
4.711
4.711
4.711
4.711
4.711
4.711
4.711
4.711
4.711
4.711
4.711
4.711
4.711
4.711
4.711
4.711
4.711
4.711
4.711
4.711
4.711
4.711
4.711
4.711
4.711
4.711
4.711
4.711
4.711
4.711
4.711
4.711
4.711
4.711
4.711
4.711
4.711
4.711
4.711
4.711
4.711
4.711
4.711
4.711
4.711
4.711
4.711
4.711
4.711
4.711
4.711
4.711
4.711
4.711
4.711
4.711
4.711
4.711
4.711
4.711
4.711
4.711
4.711
4.711
4.711
4.711
4.711
4.711
4.711
4.711
4.711
4.711
4.711
4.711
4.711
4.711
4.711
4.711
4.711
4.711
4.711
4.711
4.711
4.711
4.711
4.711
4.711
4.711
4.711
4.711
4.711
4.711
4.711
4.711
4.711
4.711
4.711
4.711
4.711
4.711
4.711
4.711
4.711
4.711
4.711
4.711
4.711
4.711
4.711
4.711
4.711
4.711
4.711
4.711
4.711
4.711
4.711
4.711
4.711
4.711
4.711
4.711
4.711
4.711
4.711
4.711
4.711
4.711
4.711
4.711
4.711
4.711
4.711
4.711
4.711
4.711
4.711
4.711
4.711
4.711
4.711
4.711
4.711
4.711
4.711
4.711
4.711
4.711
4.711
4.711
4.711
4.711
4.711
4.711
4.711
4.711
4.711
4.711
4.711
4.711
4.711
4.711
4.711
4.711
4.711
4.711
4.711
4.711
4.711
4.711
4.711
4.711
4.711
4.711
4.711
4.711
4.711
4.711
4.711
4.711
4.711
4.711
4.711
4.711
4.711
4.711
4.711
4.711
4.711
4.711
4.711
4.711
4.711
4.711
4.711
4.711
4.711
4.711
4.711
4.711
4.711
4.711
4.711
4.711
4.711
4.711
4.711
4.711
4.711
4.711
4.711
4.711
4.711
4.711
4.711
4.711
4.711
4.711
4.711
4.711
4.711
4.711
4.711
4.711
4.711
4.711
4.711
4.711
4.711
4.711
4.711
4.711
4.711
4.711
4.711
4.711
4.711
4.711
4.711
4.711
4.711
4.711
4.711
4.711
4.711
4.711
4.711
4.711
4.711
4.711
4.711
4.711
4.711
4.711
4.711
4.711
4.711
4.711
4.711
4.711
4.711
4.711
4.711
4.711
4.711
4.711
4.711
4.711
4.711
4.711
4.711
4.711
4.711
4.711
4.711
4.711
4.711
4.711
4.711
4.711
4.711
4.711
4.711
4.711
4.711
4.711
4.711
4.711
4.711
4.711
4.711
4.711
4.711
4.711
4.711
4.711
4.711
4.711
4.711
4.711
4.711
4.711
4.711
4.711
4.711
4.711
4.711
4.711
4.711
4.711
4.711
4.711
4.711
4.711
4.711
4.711
4.711
4.711
4.711
4.711
4.711
4.711
4.711
4.711
4.711
4.711
4.711
4.711
4.711
4.711
4.711
4.711
4.711
4.711
4.711
4.711
4.711
4.711
4.711
4.711
4.711
4.711
4.711
4.711
4.711
4.711
4.711
4.711
4.711
4.711
4.711
4.711
4.711
4.711
4.711
4.711
4.711
4.711
4.711
4.711
4.711
4.711
4.711
4.711
4.711
4.711
4.711
4.711
4.711
4.711
4.711
4.711
4.711
4.711
4.711
4.711
4.711
4.711
4.711
4.711
4.711
4.711
4.711
4.711
4.711
4.711
4.711
4.711
4.711
4.711
4.711
4.711
4.711
4.711
4.711
4.711
4.711
4.711
4.711
4.711
4.711
4.711
4.711
4.711
4.711
4.711
4.711
4.711
4.711
4.711
4.711
4.711
4.711
4.711
4.711
4.711
4.711
4.711
4.711
4.711
4.711
4.711
4.711
4.711
4.711
4.711
4.711
4.711
4.711
4.711
4.711
4.711
4.711
4.711
4.711
4.711
4.711
4.711
4.711
4.711
4.711
4.711
4.711
4.711
4.711
4.711
4.711
4.711
4.711
4.711
4.711
4.711
4.711
4.711
4.711
4.711
4.711
4.711
4.711
4.711
4.711
4.711
4.711
4.711
4.711
4.711
4.711
4.711
4.711
4.711
4.711
4.711
4.711
4.711
4.711
4.711
4.711
4.711
4.711
4.711
4.711
4.711
4.711
4.711
4.711
4.711
4.711
4.711
4.711
4.711
4.711
4.711
4.711
4.711
4.711
4.711
4.711
4.711
4.711
4.711
4.711
4.711
4.711
4.711
4.711
4.711
4.711
4.711
4.711
4.711
4.711
4.711
4.711
4.711
4.711
4.711
4.711
4.711
4.711
4.711
4.711
4.711
4.711
4.711
4.711
4.711
4.711
4.711
4.711
4.711
4.711
4.711
4.711
4.711
4.711
4.711
4.711
4.711
4.711
4.711
4.711
4.711
4.711
4.711
4.711
4.711
4.711
4.711
4.711
4.711
4.711
4.711
4.711
4.711
4.711
4.711
4.711
4.711
4.711
4.711
4.711
4.711
4.711
4.711
4.711
4.711
4.711
4.711
4.711
4.711
4.711
4.711
4.711
4.711
4.711
4.711
4.711
4.711
4.711
4.711
4.711
4.711
4.711
4.711
4.711
4.711
4.711
4.711
4.711
4.711
4.711
4.711
4.711
4.711
4.711
4.711
4.711
4.711
4.711
4.711
4.711
4.711
4.711
4.711
4.711
4.711
4.711
4.711
4.711
4.711
4.711
4.711
4.711
4.711
4.711
4.711
4.711
4.711
4.711
4.711
4.711
4.711
4.711
4.711
4.711
4.711
4.711
4.711
4.711
4.711
4.711
4.711
4.711
4.711
4.711
4.711
4.711
4.711
4.711
4.711
4.711
4.711
4.711
4.711
4.711
4.711
4.711
4.711
4.711
4.711
4.711
4.711
4.711
4.711
4.711
4.711
4.711
4.711
4.711
4.711
4.711
4.711
4.711
4.711
4.711
4.711
4.711
4.711
4.711
4.711
4.711
4.711
4.711
4.711
4.711
4.711
4.711
4.711
4.711
4.711
4.711
4.711
4.711
4.711
4.711
4.711
4.711
4.711
4.711
4.711
4.711
4.711
4.711
4.711
4.711
4.711
4.711
4.711
4.711
4.711
4.711
4.711
4.711
4.711
4.711
4.711
4.711
4.711
4.711
4.711
4.711
4.711
4.711
4.711
4.711
4.711
4.711
4.711
4.711
4.711
4.711
4.711
4.711
4.711
4.711
4.711
4.711
4.711
4.711
4.711
4.711
4.711
4.711
4.711
4.711
4.711
4.711
4.711
4.711
4.711
4.711
4.711
4.711
4.711
4.711
4.711
4.711
4.711
4.711
4.711
4.711
4.711
4.711
4.711
4.711
4.711
4.711
4.711
4.711
4.711
4.711
4.711
4.711
4.711
4.711
4.711
4.711
4.711
4.711
4.711
4.711
4.711
4.711
4.711
4.711
4.711
4.711
4.711
4.711
4.711
4.711
4.711
4.711
4.711
4.711
4.711
4.711
4.711
4.711
4.711
4.711
4.711
4.711
4.711
4.711
4.711
4.711
4.711
4.711
4.711
4.711
4.711
4.711
4.711
4.711
4.711
4.711
4.711
4.711
4.711
4.711
4.711
4.711
4.711
4.711
4.711
4.711
4.711
4.711
4.711
4.711
4.711
4.711
4.711
4.711
4.711
4.711
4.711
4.711
4.711
4.711
4.711
4.711
4.711
4.711
4.711
4.711
4.711
4.711
4.711
4.711
4.711
4.711
4.711
4.711
4.711
4.711
4.711
4.711
4.711
4.711
4.711
4.711
4.711

SCALARS p float
LOOKUP_TABLE default 
-1.85124
-1.85123
-3.74894
-5.54888
-7.3076
-9.02832
-10.6929
-12.2711
-13.7244
-15.0119
-16.0965
-16.9522
-17.5673
-17.9437
-18.0941
-18.0379
-17.7979
-17.3968
-16.8565
-16.1971
-15.4373
-14.5943
-13.6845
-12.7226
-11.7219
-10.6937
-9.64775
-8.59194
-7.53281
-6.47569
-5.42498
-4.38439
-3.35708
-2.34583
-1.35318
-0.38148
0.567033
1.49021
2.38597
3.25233
4.08745
4.88966
5.65752
6.38992
7.08607
7.7456
8.36857
8.95553
9.50723
10
-1.85123
-1.85123
-3.74894
-5.54888
-7.3076
-9.02832
-10.6929
-12.2711
-13.7244
-15.0119
-16.0965
-16.9522
-17.5673
-17.9437
-18.0941
-18.0379
-17.7979
-17.3968
-16.8565
-16.1971
-15.4373
-14.5943
-13.6845
-12.7226
-11.7219
-10.6937
-9.64775
-8.59194
-7.53281
-6.47569
-5.42498
-4.38439
-3.35708
-2.34583
-1.35318
-0.38148
0.567033
1.49021
2.38597
3.25233
4.08745
4.88966
5.65752
6.38992
7.08607
7.7456
8.36857
8.95553
9.50723
10
-2.36308
-2.36308
-3.77299
-5.42332
-7.18592
-9.00587
-10.8312
-12.5989
-14.2369
-15.6722
-16.8449
-17.7206
-18.2922
-18.5737
-18.594
-18.3892
-17.9978
-17.4557
-16.7941
-16.0387
-15.2097
-14.3233
-13.3919
-12.4259
-11.4338
-10.4228
-9.39928
-8.36854
-7.33537
-6.30392
-5.27788
-4.2605
-3.25474
-2.26332
-1.28875
-0.333448
0.600255
1.5101
2.39389
3.24951
4.075
4.86857
5.6287
6.3542
7.04433
7.69889
8.3185
8.9053
9.46497
10
-2.25393
-2.25393
-3.35403
-4.91187
-6.79884
-8.93727
-11.2191
-13.5058
-15.6412
-17.4699
-18.876
-19.8129
-20.2915
-20.3586
-20.0796
-19.5274
-18.7743
-17.8852
-16.9134
-15.8987
-14.8679
-13.8365
-12.8121
-11.797
-10.7906
-9.79113
-8.79697
-7.80702
-6.82098
-5.8393
-4.8631
-3.89396
-2.93382
-1.98484
-1.04933
-0.129676
0.771676
1.65228
2.5097
3.34161
4.14581
4.9203
5.66343
6.37393
7.0511
7.69505
8.30707
8.89053
9.45253
10
-1.11145
-1.11145
-2.08495
-3.69253
-5.92144
-8.74533
-11.9566
-15.2725
-18.377
-20.943
-22.7464
-23.7468
-24.0153
-23.6678
-22.835
-21.6502
-20.241
-18.7204
-17.1789
-15.6811
-14.266
-12.9502
-11.7343
-10.6082
-9.5565
-8.56235
-7.61019
-6.68701
-5.78288
-4.89088
-4.00676
-3.12836
-2.25519
-1.38796
-0.528209
0.321939
1.16
1.9833
2.78907
3.57459
4.33728
5.07481
5.78521
6.46702
7.11944
7.74258
8.33785
8.90853
9.46036
10
1.37104
1.37104
0.454811
-1.28365
-4.09735
-8.19392
-13.0869
-18.2304
-23.0449
-26.842
-29.1854
-30.1472
-29.9656
-28.8836
-27.1284
-24.9192
-22.4636
-19.9453
-17.5096
-15.2568
-13.2423
-11.4829
-9.96717
-8.66574
-7.54056
-6.55198
-5.66338
-4.84362
-4.06801
-3.31811
-2.58109
-1.84872
-1.11638
-0.382194
0.35375
1.08999
1.82414
2.55329
3.27424
3.9837
4.67853
5.35581
6.01306
6.64829
7.26027
7.84862
8.41408
8.95867
9.48566
10
5.42786
5.42786
4.68288
3.00635
-0.461366
-6.8551
-14.6107
-22.7978
-30.5395
-36.2987
-39.1523
-39.7317
-38.6679
-36.38
-33.1998
-29.4502
-25.4482
-21.4778
-17.7614
-14.4459
-11.6037
-9.24535
-7.33665
-5.81675
-4.61319
-3.65307
-2.87006
-2.2081
-1.62247
-1.07933
-0.554448
-0.0314999
0.499578
1.0441
1.60392
2.17843
2.76538
3.36149
3.96293
4.56561
5.16549
5.75879
6.34211
6.91264
7.4682
8.00741
8.52971
9.03529
9.52475
10
11.0386
11.0386
10.8814
10.1579
6.84868
-4.14935
-16.4254
-29.1993
-41.9346
-50.7978
-53.4467
-52.855
-50.3041
-46.26
-41.0799
-35.1932
-29.0688
-23.1362
-17.725
-13.0395
-9.16466
-6.09024
-3.74098
-2.00595
-0.761907
0.110376
0.716614
1.14469
1.46395
1.72656
1.96993
2.21943
2.49101
2.79349
3.1305
3.50202
3.90556
4.33707
4.79162
5.2639
5.74857
6.24053
6.7351
7.22814
7.71619
8.19643
8.66667
9.12518
9.57029
10
17.578
17.578
18.7233
21.143
22.5619
-0.425436
-17.9525
-35.2851
-56.0668
-70.2762
-70.1577
-67.4659
-63.2475
-57.3258
-49.8908
-41.4996
-32.8519
-24.5951
-17.2089
-10.9699
-5.96956
-2.15947
0.597879
2.48347
3.68741
4.3868
4.73408
4.85303
4.83948
4.76437
4.67791
4.61373
4.59272
4.62625
4.71883
4.87017
5.07683
5.33335
5.63318
5.96927
6.33457
6.7223
7.12614
7.54041
7.96007
8.38074
8.79862
9.21026
9.61229
10
23.4763
23.4763
26.1364
33.8844
22.5619
-0.425436
-17.9525
-35.2851
-56.0668
-88.4644
-80.8643
-76.9722
-72.4968
-65.839
-56.956
-46.5884
-35.7548
-25.4011
-16.2137
-8.57224
-2.58678
1.82839
4.87716
6.81537
7.90292
8.37505
8.42912
8.22183
7.87201
7.46608
7.06411
6.70556
6.41433
6.20286
6.07546
6.03081
6.06396
6.16769
6.33358
6.55275
6.81634
7.11586
7.44342
7.79181
8.15456
8.52593
8.90078
9.27444
9.64237
10
26.7931
26.7931
28.779
33.8844
33.8844
0
0
0
-88.4644
-88.4644
-80.7364
-78.556
-75.2951
-69.1643
-60.1133
-48.9777
-37.0069
-25.4114
-15.0873
-6.53758
0.082168
4.86809
8.06724
9.99058
10.9504
11.2248
11.0429
10.584
9.98186
9.3326
8.70207
8.13289
7.65026
7.26679
6.98613
6.80591
6.7198
6.71916
6.79408
6.93426
7.1295
7.37004
7.64681
7.95154
8.27674
8.61575
8.96262
9.31198
9.65881
10
27.8684
27.8684
28.3051
28.3051
0
0
0
0
0
-76.9437
-76.9437
-76.8616
-74.1989
-68.3913
-59.5513
-48.4821
-36.4164
-24.5951
-13.9821
-5.1575
1.66705
6.56383
9.78497
11.662
12.5302
12.6866
12.3739
11.7806
11.0467
10.2721
9.52468
8.84833
8.26866
7.79815
7.44007
7.19144
7.04522
6.99202
7.0212
7.1217
7.28264
7.49363
7.745
8.02791
8.33441
8.65738
8.9905
9.3282
9.6656
10
28.1269
28.1269
28.2466
28.2466
0
0
0
0
0
-75.3823
-75.3823
-75.514
-72.9949
-67.3016
-58.5772
-47.6212
-35.6601
-23.9418
-13.4207
-4.64928
2.16389
7.06256
10.2759
12.1314
12.9687
13.0893
12.7392
12.1087
11.3388
10.53
9.75093
9.04547
8.43934
7.94502
7.56568
7.29818
7.13533
7.06754
7.08398
7.17342
7.32477
7.52748
7.77173
8.04854
8.3498
8.66828
8.99759
9.33214
9.66724
10
27.8684
27.8684
28.3051
28.3051
0
0
0
0
0
-76.9437
-76.9437
-76.8616
-74.1989
-68.3913
-59.5513
-48.4821
-36.4164
-24.5951
-13.9821
-5.1575
1.66705
6.56383
9.78497
11.662
12.5302
12.6866
12.3739
11.7806
11.0467
10.2721
9.52468
8.84833
8.26866
7.79815
7.44007
7.19144
7.04522
6.99202
7.0212
7.1217
7.28264
7.49363
7.745
8.02791
8.33441
8.65738
8.9905
9.3282
9.6656
10
26.7931
26.7931
28.779
33.8844
33.8844
0
0
0
-88.4644
-88.4644
-80.7364
-78.556
-75.2951
-69.1643
-60.1133
-48.9777
-37.0069
-25.4114
-15.0873
-6.53758
0.082168
4.86809
8.06724
9.99058
10.9504
11.2248
11.0429
10.584
9.98186
9.3326
8.70207
8.13289
7.65026
7.26679
6.98613
6.80591
6.7198
6.71916
6.79408
6.93426
7.1295
7.37004
7.64681
7.95154
8.27674
8.61575
8.96262
9.31198
9.65881
10
23.4763
23.4763
26.1364
33.8844
22.5619
-0.425436
-17.9525
-35.2851
-56.0668
-88.4644
-80.8643
-76.9722
-72.4968
-65.839
-56.956
-46.5884
-35.7548
-25.4011
-16.2137
-8.57224
-2.58678
1.82839
4.87716
6.81537
7.90292
8.37505
8.42912
8.22183
7.87201
7.46608
7.06411
6.70556
6.41433
6.20286
6.07546
6.03081
6.06396
6.16769
6.33358
6.55275
6.81634
7.11586
7.44342
7.79181
8.15456
8.52593
8.90078
9.27444
9.64237
10
17.578
17.578
18.7233
21.143
22.5619
-0.425436
-17.9525
-35.2851
-56.0668
-70.2762
-70.1577
-67.4659
-63.2475
-57.3258
-49.8908
-41.4996
-32.8519
-24.5951
-17.2089
-10.9699
-5.96956
-2.15947
0.597879
2.48347
3.68741
4.3868
4.73408
4.85303
4.83948
4.76437
4.67791
4.61373
4.59272
4.62625
4.71883
4.87017
5.07683
5.33335
5.63318
5.96927
6.33457
6.7223
7.12614
7.54041
7.96007
8.38074
8.79862
9.21026
9.61229
10
11.0386
11.0386
10.8814
10.1579
6.84868
-4.14935
-16.4254
-29.1993
-41.9346
-50.7978
-53.4467
-52.855
-50.3041
-46.26
-41.0799
-35.1932
-29.0688
-23.1362
-17.725
-13.0395
-9.16466
-6.09024
-3.74098
-2.00595
-0.761907
0.110376
0.716614
1.14469
1.46395
1.72656
1.96993
2.21943
2.49101
2.79349
3.1305
3.50202
3.90556
4.33707
4.79162
5.2639
5.74857
6.24053
6.7351
7.22814
7.71619
8.19643
8.66667
9.12518
9.57029
10
5.42786
5.42786
4.68288
3.00635
-0.461366
-6.8551
-14.6107
-22.7978
-30.5395
-36.2987
-39.1523
-39.7317
-38.6679
-36.38
-33.1998
-29.4502
-25.4482
-21.4778
-17.7614
-14.4459
-11.6037
-9.24535
-7.33665
-5.81675
-4.61319
-3.65307
-2.87006
-2.2081
-1.62247
-1.07933
-0.554448
-0.0314999
0.499578
1.0441
1.60392
2.17843
2.76538
3.36149
3.96293
4.56561
5.16549
5.75879
6.34211
6.91264
7.4682
8.00741
8.52971
9.03529
9.52475
10
1.37104
1.37104
0.454811
-1.28365
-4.09735
-8.19392
-13.0869
-18.2304
-23.0449
-26.842
-29.1854
-30.1472
-29.9656
-28.8836
-27.1284
-24.9192
-22.4636
-19.9453
-17.5096
-15.2568
-13.2423
-11.4829
-9.96717
-8.66574
-7.54056
-6.55198
-5.66338
-4.84362
-4.06801
-3.31811
-2.58109
-1.84872
-1.11638
-0.382194
0.35375
1.08999
1.82414
2.55329
3.27424
3.9837
4.67853
5.35581
6.01306
6.64829
7.26027
7.84862
8.41408
8.95867
9.48566
10
-1.11145
-1.11145
-2.08495
-3.69253
-5.92144
-8.74533
-11.9566
-15.2725
-18.377
-20.943
-22.7464
-23.7468
-24.0153
-23.6678
-22.835
-21.6502
-20.241
-18.7204
-17.1789
-15.6811
-14.266
-12.9502
-11.7343
-10.6082
-9.5565
-8.56235
-7.61019
-6.68701
-5.78288
-4.89088
-4.00676
-3.12836
-2.25519
-1.38796
-0.528209
0.321939
1.16
1.9833
2.78907
3.57459
4.33728
5.07481
5.78521
6.46702
7.11944
7.74258
8.33785
8.90853
9.46036
10
-2.25393
-2.25393
-3.35403
-4.91187
-6.79884
-8.93727
-11.2191
-13.5058
-15.6412
-17.4699
-18.876
-19.8129
-20.2915
-20.3586
-20.0796
-19.5274
-18.7743
-17.8852
-16.9134
-15.8987
-14.8679
-13.8365
-12.8121
-11.797
-10.7906
-9.79113
-8.79697
-7.80702
-6.82098
-5.8393
-4.8631
-3.89396
-2.93382
-1.98484
-1.04933
-0.129676
0.771676
1.65228
2.5097
3.34161
4.14581
4.9203
5.66343
6.37393
7.0511
7.69505
8.30707
8.89053
9.45253
10
-2.36308
-2.36308
-3.77299
-5.42332
-7.18592
-9.00587
-10.8312
-12.5989
-14.2369
-15.6722
-16.8449
-17.7206
-18.2922
-18.5737
-18.594
-18.3892
-17.9978
-17.4557
-16.7941
-16.0386
-15.2097
-14.3233
-13.3919
-12.4259
-11.4338
-10.4228
-9.39928
-8.36854
-7.33537
-6.30392
-5.27788
-4.2605
-3.25474
-2.26332
-1.28875
-0.333448
0.600255
1.5101
2.39389
3.24951
4.075
4.86857
5.6287
6.3542
7.04433
7.69889
8.3185
8.9053
9.46497
10
-1.85123
-1.85123
-3.74894
-5.54888
-7.3076
-9.02832