# vtk DataFile Version 3.0
vtk output83
ASCII
DATASET STRUCTURED_GRID
DIMENSIONS 51 26 1
POINTS 1326 float
0 0 0
0.4 0 0
0.8 0 0
1.2 0 0
1.6 0 0
2 0 0
2.4 0 0
2.8 0 0
3.2 0 0
3.6 0 0
4 0 0
4.4 0 0
4.8 0 0
5.2 0 0
5.6 0 0
6 0 0
6.4 0 0
6.8 0 0
7.2 0 0
7.6 0 0
8 0 0
8.4 0 0
8.8 0 0
9.2 0 0
9.6 0 0
10 0 0
10.4 0 0
10.8 0 0
11.2 0 0
11.6 0 0
12 0 0
12.4 0 0
12.8 0 0
13.2 0 0
13.6 0 0
14 0 0
14.4 0 0
14.8 0 0
15.2 0 0
15.6 0 0
16 0 0
16.4 0 0
16.8 0 0
17.2 0 0
17.6 0 0
18 0 0
18.4 0 0
18.8 0 0
19.2 0 0
19.6 0 0
20 0 0
0 0.4 0
0.4 0.4 0
0.8 0.4 0
1.2 0.4 0
1.6 0.4 0
2 0.4 0
2.4 0.4 0
2.8 0.4 0
3.2 0.4 0
3.6 0.4 0
4 0.4 0
4.4 0.4 0
4.8 0.4 0
5.2 0.4 0
5.6 0.4 0
6 0.4 0
6.4 0.4 0
6.8 0.4 0
7.2 0.4 0
7.6 0.4 0
8 0.4 0
8.4 0.4 0
8.8 0.4 0
9.2 0.4 0
9.6 0.4 0
10 0.4 0
10.4 0.4 0
10.8 0.4 0
11.2 0.4 0
11.6 0.4 0
12 0.4 0
12.4 0.4 0
12.8 0.4 0
13.2 0.4 0
13.6 0.4 0
14 0.4 0
14.4 0.4 0
14.8 0.4 0
15.2 0.4 0
15.6 0.4 0
16 0.4 0
16.4 0.4 0
16.8 0.4 0
17.2 0.4 0
17.6 0.4 0
18 0.4 0
18.4 0.4 0
18.8 0.4 0
19.2 0.4 0
19.6 0.4 0
20 0.4 0
0 0.8 0
0.4 0.8 0
0.8 0.8 0
1.2 0.8 0
1.6 0.8 0
2 0.8 0
2.4 0.8 0
2.8 0.8 0
3.2 0.8 0
3.6 0.8 0
4 0.8 0
4.4 0.8 0
4.8 0.8 0
5.2 0.8 0
5.6 0.8 0
6 0.8 0
6.4 0.8 0
6.8 0.8 0
7.2 0.8 0
7.6 0.8 0
8 0.8 0
8.4 0.8 0
8.8 0.8 0
9.2 0.8 0
9.6 0.8 0
10 0.8 0
10.4 0.8 0
10.8 0.8 0
11.2 0.8 0
11.6 0.8 0
12 0.8 0
12.4 0.8 0
12.8 0.8 0
13.2 0.8 0
13.6 0.8 0
14 0.8 0
14.4 0.8 0
14.8 0.8 0
15.2 0.8 0
15.6 0.8 0
16 0.8 0
16.4 0.8 0
16.8 0.8 0
17.2 0.8 0
17.6 0.8 0
18 0.8 0
18.4 0.8 0
18.8 0.8 0
19.2 0.8 0
19.6 0.8 0
20 0.8 0
0 1.2 0
0.4 1.2 0
0.8 1.2 0
1.2 1.2 0
1.6 1.2 0
2 1.2 0
2.4 1.2 0
2.8 1.2 0
3.2 1.2 0
3.6 1.2 0
4 1.2 0
4.4 1.2 0
4.8 1.2 0
5.2 1.2 0
5.6 1.2 0
6 1.2 0
6.4 1.2 0
6.8 1.2 0
7.2 1.2 0
7.6 1.2 0
8 1.2 0
8.4 1.2 0
8.8 1.2 0
9.2 1.2 0
9.6 1.2 0
10 1.2 0
10.4 1.2 0
10.8 1.2 0
11.2 1.2 0
11.6 1.2 0
12 1.2 0
12.4 1.2 0
12.8 1.2 0
13.2 1.2 0
13.6 1.2 0
14 1.2 0
14.4 1.2 0
14.8 1.2 0
15.2 1.2 0
15.6 1.2 0
16 1.2 0
16.4 1.2 0
16.8 1.2 0
17.2 1.2 0
17.6 1.2 0
18 1.2 0
18.4 1.2 0
18.8 1.2 0
19.2 1.2 0
19.6 1.2 0
20 1.2 0
0 1.6 0
0.4 1.6 0
0.8 1.6 0
1.2 1.6 0
1.6 1.6 0
2 1.6 0
2.4 1.6 0
2.8 1.6 0
3.2 1.6 0
3.6 1.6 0
4 1.6 0
4.4 1.6 0
4.8 1.6 0
5.2 1.6 0
5.6 1.6 0
6 1.6 0
6.4 1.6 0
6.8 1.6 0
7.2 1.6 0
7.6 1.6 0
8 1.6 0
8.4 1.6 0
8.8 1.6 0
9.2 1.6 0
9.6 1.6 0
10 1.6 0
10.4 1.6 0
10.8 1.6 0
11.2 1.6 0
11.6 1.6 0
12 1.6 0
12.4 1.6 0
12.8 1.6 0
13.2 1.6 0
13.6 1.6 0
14 1.6 0
14.4 1.6 0
14.8 1.6 0
15.2 1.6 0
15.6 1.6 0
16 1.6 0
16.4 1.6 0
16.8 1.6 0
17.2 1.6 0
17.6 1.6 0
18 1.6 0
18.4 1.6 0
18.8 1.6 0
19.2 1.6 0
19.6 1.6 0
20 1.6 0
0 2 0
0.4 2 0
0.8 2 0
1.2 2 0
1.6 2 0
2 2 0
2.4 2 0
2.8 2 0
3.2 2 0
3.6 2 0
4 2 0
4.4 2 0
4.8 2 0
5.2 2 0
5.6 2 0
6 2 0
6.4 2 0
6.8 2 0
7.2 2 0
7.6 2 0
8 2 0
8.4 2 0
8.8 2 0
9.2 2 0
9.6 2 0
10 2 0
10.4 2 0
10.8 2 0
11.2 2 0
11.6 2 0
12 2 0
12.4 2 0
12.8 2 0
13.2 2 0
13.6 2 0
14 2 0
14.4 2 0
14.8 2 0
15.2 2 0
15.6 2 0
16 2 0
16.4 2 0
16.8 2 0
17.2 2 0
17.6 2 0
18 2 0
18.4 2 0
18.8 2 0
19.2 2 0
19.6 2 0
20 2 0
0 2.4 0
0.4 2.4 0
0.8 2.4 0
1.2 2.4 0
1.6 2.4 0
2 2.4 0
2.4 2.4 0
2.8 2.4 0
3.2 2.4 0
3.6 2.4 0
4 2.4 0
4.4 2.4 0
4.8 2.4 0
5.2 2.4 0
5.6 2.4 0
6 2.4 0
6.4 2.4 0
6.8 2.4 0
7.2 2.4 0
7.6 2.4 0
8 2.4 0
8.4 2.4 0
8.8 2.4 0
9.2 2.4 0
9.6 2.4 0
10 2.4 0
10.4 2.4 0
10.8 2.4 0
11.2 2.4 0
11.6 2.4 0
12 2.4 0
12.4 2.4 0
12.8 2.4 0
13.2 2.4 0
13.6 2.4 0
14 2.4 0
14.4 2.4 0
14.8 2.4 0
15.2 2.4 0
15.6 2.4 0
16 2.4 0
16.4 2.4 0
16.8 2.4 0
17.2 2.4 0
17.6 2.4 0
18 2.4 0
18.4 2.4 0
18.8 2.4 0
19.2 2.4 0
19.6 2.4 0
20 2.4 0
0 2.8 0
0.4 2.8 0
0.8 2.8 0
1.2 2.8 0
1.6 2.8 0
2 2.8 0
2.4 2.8 0
2.8 2.8 0
3.2 2.8 0
3.6 2.8 0
4 2.8 0
4.4 2.8 0
4.8 2.8 0
5.2 2.8 0
5.6 2.8 0
6 2.8 0
6.4 2.8 0
6.8 2.8 0
7.2 2.8 0
7.6 2.8 0
8 2.8 0
8.4 2.8 0
8.8 2.8 0
9.2 2.8 0
9.6 2.8 0
10 2.8 0
10.4 2.8 0
10.8 2.8 0
11.2 2.8 0
11.6 2.8 0
12 2.8 0
12.4 2.8 0
12.8 2.8 0
13.2 2.8 0
13.6 2.8 0
14 2.8 0
14.4 2.8 0
14.8 2.8 0
15.2 2.8 0
15.6 2.8 0
16 2.8 0
16.4 2.8 0
16.8 2.8 0
17.2 2.8 0
17.6 2.8 0
18 2.8 0
18.4 2.8 0
18.8 2.8 0
19.2 2.8 0
19.6 2.8 0
20 2.8 0
0 3.2 0
0.4 3.2 0
0.8 3.2 0
1.2 3.2 0
1.6 3.2 0
2 3.2 0
2.4 3.2 0
2.8 3.2 0
3.2 3.2 0
3.6 3.2 0
4 3.2 0
4.4 3.2 0
4.8 3.2 0
5.2 3.2 0
5.6 3.2 0
6 3.2 0
6.4 3.2 0
6.8 3.2 0
7.2 3.2 0
7.6 3.2 0
8 3.2 0
8.4 3.2 0
8.8 3.2 0
9.2 3.2 0
9.6 3.2 0
10 3.2 0
10.4 3.2 0
10.8 3.2 0
11.2 3.2 0
11.6 3.2 0
12 3.2 0
12.4 3.2 0
12.8 3.2 0
13.2 3.2 0
13.6 3.2 0
14 3.2 0
14.4 3.2 0
14.8 3.2 0
15.2 3.2 0
15.6 3.2 0
16 3.2 0
16.4 3.2 0
16.8 3.2 0
17.2 3.2 0
17.6 3.2 0
18 3.2 0
18.4 3.2 0
18.8 3.2 0
19.2 3.2 0
19.6 3.2 0
20 3.2 0
0 3.6 0
0.4 3.6 0
0.8 3.6 0
1.2 3.6 0
1.6 3.6 0
2 3.6 0
2.4 3.6 0
2.8 3.6 0
3.2 3.6 0
3.6 3.6 0
4 3.6 0
4.4 3.6 0
4.8 3.6 0
5.2 3.6 0
5.6 3.6 0
6 3.6 0
6.4 3.6 0
6.8 3.6 0
7.2 3.6 0
7.6 3.6 0
8 3.6 0
8.4 3.6 0
8.8 3.6 0
9.2 3.6 0
9.6 3.6 0
10 3.6 0
10.4 3.6 0
10.8 3.6 0
11.2 3.6 0
11.6 3.6 0
12 3.6 0
12.4 3.6 0
12.8 3.6 0
13.2 3.6 0
13.6 3.6 0
14 3.6 0
14.4 3.6 0
14.8 3.6 0
15.2 3.6 0
15.6 3.6 0
16 3.6 0
16.4 3.6 0
16.8 3.6 0
17.2 3.6 0
17.6 3.6 0
18 3.6 0
18.4 3.6 0
18.8 3.6 0
19.2 3.6 0
19.6 3.6 0
20 3.6 0
0 4 0
0.4 4 0
0.8 4 0
1.2 4 0
1.6 4 0
2 4 0
2.4 4 0
2.8 4 0
3.2 4 0
3.6 4 0
4 4 0
4.4 4 0
4.8 4 0
5.2 4 0
5.6 4 0
6 4 0
6.4 4 0
6.8 4 0
7.2 4 0
7.6 4 0
8 4 0
8.4 4 0
8.8 4 0
9.2 4 0
9.6 4 0
10 4 0
10.4 4 0
10.8 4 0
11.2 4 0
11.6 4 0
12 4 0
12.4 4 0
12.8 4 0
13.2 4 0
13.6 4 0
14 4 0
14.4 4 0
14.8 4 0
15.2 4 0
15.6 4 0
16 4 0
16.4 4 0
16.8 4 0
17.2 4 0
17.6 4 0
18 4 0
18.4 4 0
18.8 4 0
19.2 4 0
19.6 4 0
20 4 0
0 4.4 0
0.4 4.4 0
0.8 4.4 0
1.2 4.4 0
1.6 4.4 0
2 4.4 0
2.4 4.4 0
2.8 4.4 0
3.2 4.4 0
3.6 4.4 0
4 4.4 0
4.4 4.4 0
4.8 4.4 0
5.2 4.4 0
5.6 4.4 0
6 4.4 0
6.4 4.4 0
6.8 4.4 0
7.2 4.4 0
7.6 4.4 0
8 4.4 0
8.4 4.4 0
8.8 4.4 0
9.2 4.4 0
9.6 4.4 0
10 4.4 0
10.4 4.4 0
10.8 4.4 0
11.2 4.4 0
11.6 4.4 0
12 4.4 0
12.4 4.4 0
12.8 4.4 0
13.2 4.4 0
13.6 4.4 0
14 4.4 0
14.4 4.4 0
14.8 4.4 0
15.2 4.4 0
15.6 4.4 0
16 4.4 0
16.4 4.4 0
16.8 4.4 0
17.2 4.4 0
17.6 4.4 0
18 4.4 0
18.4 4.4 0
18.8 4.4 0
19.2 4.4 0
19.6 4.4 0
20 4.4 0
0 4.8 0
0.4 4.8 0
0.8 4.8 0
1.2 4.8 0
1.6 4.8 0
2 4.8 0
2.4 4.8 0
2.8 4.8 0
3.2 4.8 0
3.6 4.8 0
4 4.8 0
4.4 4.8 0
4.8 4.8 0
5.2 4.8 0
5.6 4.8 0
6 4.8 0
6.4 4.8 0
6.8 4.8 0
7.2 4.8 0
7.6 4.8 0
8 4.8 0
8.4 4.8 0
8.8 4.8 0
9.2 4.8 0
9.6 4.8 0
10 4.8 0
10.4 4.8 0
10.8 4.8 0
11.2 4.8 0
11.6 4.8 0
12 4.8 0
12.4 4.8 0
12.8 4.8 0
13.2 4.8 0
13.6 4.8 0
14 4.8 0
14.4 4.8 0
14.8 4.8 0
15.2 4.8 0
15.6 4.8 0
16 4.8 0
16.4 4.8 0
16.8 4.8 0
17.2 4.8 0
17.6 4.8 0
18 4.8 0
18.4 4.8 0
18.8 4.8 0
19.2 4.8 0
19.6 4.8 0
20 4.8 0
0 5.2 0
0.4 5.2 0
0.8 5.2 0
1.2 5.2 0
1.6 5.2 0
2 5.2 0
2.4 5.2 0
2.8 5.2 0
3.2 5.2 0
3.6 5.2 0
4 5.2 0
4.4 5.2 0
4.8 5.2 0
5.2 5.2 0
5.6 5.2 0
6 5.2 0
6.4 5.2 0
6.8 5.2 0
7.2 5.2 0
7.6 5.2 0
8 5.2 0
8.4 5.2 0
8.8 5.2 0
9.2 5.2 0
9.6 5.2 0
10 5.2 0
10.4 5.2 0
10.8 5.2 0
11.2 5.2 0
11.6 5.2 0
12 5.2 0
12.4 5.2 0
12.8 5.2 0
13.2 5.2 0
13.6 5.2 0
14 5.2 0
14.4 5.2 0
14.8 5.2 0
15.2 5.2 0
15.6 5.2 0
16 5.2 0
16.4 5.2 0
16.8 5.2 0
17.2 5.2 0
17.6 5.2 0
18 5.2 0
18.4 5.2 0
18.8 5.2 0
19.2 5.2 0
19.6 5.2 0
20 5.2 0
0 5.6 0
0.4 5.6 0
0.8 5.6 0
1.2 5.6 0
1.6 5.6 0
2 5.6 0
2.4 5.6 0
2.8 5.6 0
3.2 5.6 0
3.6 5.6 0
4 5.6 0
4.4 5.6 0
4.8 5.6 0
5.2 5.6 0
5.6 5.6 0
6 5.6 0
6.4 5.6 0
6.8 5.6 0
7.2 5.6 0
7.6 5.6 0
8 5.6 0
8.4 5.6 0
8.8 5.6 0
9.2 5.6 0
9.6 5.6 0
10 5.6 0
10.4 5.6 0
10.8 5.6 0
11.2 5.6 0
11.6 5.6 0
12 5.6 0
12.4 5.6 0
12.8 5.6 0
13.2 5.6 0
13.6 5.6 0
14 5.6 0
14.4 5.6 0
14.8 5.6 0
15.2 5.6 0
15.6 5.6 0
16 5.6 0
16.4 5.6 0
16.8 5.6 0
17.2 5.6 0
17.6 5.6 0
18 5.6 0
18.4 5.6 0
18.8 5.6 0
19.2 5.6 0
19.6 5.6 0
20 5.6 0
0 6 0
0.4 6 0
0.8 6 0
1.2 6 0
1.6 6 0
2 6 0
2.4 6 0
2.8 6 0
3.2 6 0
3.6 6 0
4 6 0
4.4 6 0
4.8 6 0
5.2 6 0
5.6 6 0
6 6 0
6.4 6 0
6.8 6 0
7.2 6 0
7.6 6 0
8 6 0
8.4 6 0
8.8 6 0
9.2 6 0
9.6 6 0
10 6 0
10.4 6 0
10.8 6 0
11.2 6 0
11.6 6 0
12 6 0
12.4 6 0
12.8 6 0
13.2 6 0
13.6 6 0
14 6 0
14.4 6 0
14.8 6 0
15.2 6 0
15.6 6 0
16 6 0
16.4 6 0
16.8 6 0
17.2 6 0
17.6 6 0
18 6 0
18.4 6 0
18.8 6 0
19.2 6 0
19.6 6 0
20 6 0
0 6.4 0
0.4 6.4 0
0.8 6.4 0
1.2 6.4 0
1.6 6.4 0
2 6.4 0
2.4 6.4 0
2.8 6.4 0
3.2 6.4 0
3.6 6.4 0
4 6.4 0
4.4 6.4 0
4.8 6.4 0
5.2 6.4 0
5.6 6.4 0
6 6.4 0
6.4 6.4 0
6.8 6.4 0
7.2 6.4 0
7.6 6.4 0
8 6.4 0
8.4 6.4 0
8.8 6.4 0
9.2 6.4 0
9.6 6.4 0
10 6.4 0
10.4 6.4 0
10.8 6.4 0
11.2 6.4 0
11.6 6.4 0
12 6.4 0
12.4 6.4 0
12.8 6.4 0
13.2 6.4 0
13.6 6.4 0
14 6.4 0
14.4 6.4 0
14.8 6.4 0
15.2 6.4 0
15.6 6.4 0
16 6.4 0
16.4 6.4 0
16.8 6.4 0
17.2 6.4 0
17.6 6.4 0
18 6.4 0
18.4 6.4 0
18.8 6.4 0
19.2 6.4 0
19.6 6.4 0
20 6.4 0
0 6.8 0
0.4 6.8 0
0.8 6.8 0
1.2 6.8 0
1.6 6.8 0
2 6.8 0
2.4 6.8 0
2.8 6.8 0
3.2 6.8 0
3.6 6.8 0
4 6.8 0
4.4 6.8 0
4.8 6.8 0
5.2 6.8 0
5.6 6.8 0
6 6.8 0
6.4 6.8 0
6.8 6.8 0
7.2 6.8 0
7.6 6.8 0
8 6.8 0
8.4 6.8 0
8.8 6.8 0
9.2 6.8 0
9.6 6.8 0
10 6.8 0
10.4 6.8 0
10.8 6.8 0
11.2 6.8 0
11.6 6.8 0
12 6.8 0
12.4 6.8 0
12.8 6.8 0
13.2 6.8 0
13.6 6.8 0
14 6.8 0
14.4 6.8 0
14.8 6.8 0
15.2 6.8 0
15.6 6.8 0
16 6.8 0
16.4 6.8 0
16.8 6.8 0
17.2 6.8 0
17.6 6.8 0
18 6.8 0
18.4 6.8 0
18.8 6.8 0
19.2 6.8 0
19.6 6.8 0
20 6.8 0
0 7.2 0
0.4 7.2 0
0.8 7.2 0
1.2 7.2 0
1.6 7.2 0
2 7.2 0
2.4 7.2 0
2.8 7.2 0
3.2 7.2 0
3.6 7.2 0
4 7.2 0
4.4 7.2 0
4.8 7.2 0
5.2 7.2 0
5.6 7.2 0
6 7.2 0
6.4 7.2 0
6.8 7.2 0
7.2 7.2 0
7.6 7.2 0
8 7.2 0
8.4 7.2 0
8.8 7.2 0
9.2 7.2 0
9.6 7.2 0
10 7.2 0
10.4 7.2 0
10.8 7.2 0
11.2 7.2 0
11.6 7.2 0
12 7.2 0
12.4 7.2 0
12.8 7.2 0
13.2 7.2 0
13.6 7.2 0
14 7.2 0
14.4 7.2 0
14.8 7.2 0
15.2 7.2 0
15.6 7.2 0
16 7.2 0
16.4 7.2 0
16.8 7.2 0
17.2 7.2 0
17.6 7.2 0
18 7.2 0
18.4 7.2 0
18.8 7.2 0
19.2 7.2 0
19.6 7.2 0
20 7.2 0
0 7.6 0
0.4 7.6 0
0.8 7.6 0
1.2 7.6 0
1.6 7.6 0
2 7.6 0
2.4 7.6 0
2.8 7.6 0
3.2 7.6 0
3.6 7.6 0
4 7.6 0
4.4 7.6 0
4.8 7.6 0
5.2 7.6 0
5.6 7.6 0
6 7.6 0
6.4 7.6 0
6.8 7.6 0
7.2 7.6 0
7.6 7.6 0
8 7.6 0
8.4 7.6 0
8.8 7.6 0
9.2 7.6 0
9.6 7.6 0
10 7.6 0
10.4 7.6 0
10.8 7.6 0
11.2 7.6 0
11.6 7.6 0
12 7.6 0
12.4 7.6 0
12.8 7.6 0
13.2 7.6 0
13.6 7.6 0
14 7.6 0
14.4 7.6 0
14.8 7.6 0
15.2 7.6 0
15.6 7.6 0
16 7.6 0
16.4 7.6 0
16.8 7.6 0
17.2 7.6 0
17.6 7.6 0
18 7.6 0
18.4 7.6 0
18.8 7.6 0
19.2 7.6 0
19.6 7.6 0
20 7.6 0
0 8 0
0.4 8 0
0.8 8 0
1.2 8 0
1.6 8 0
2 8 0
2.4 8 0
2.8 8 0
3.2 8 0
3.6 8 0
4 8 0
4.4 8 0
4.8 8 0
5.2 8 0
5.6 8 0
6 8 0
6.4 8 0
6.8 8 0
7.2 8 0
7.6 8 0
8 8 0
8.4 8 0
8.8 8 0
9.2 8 0
9.6 8 0
10 8 0
10.4 8 0
10.8 8 0
11.2 8 0
11.6 8 0
12 8 0
12.4 8 0
12.8 8 0
13.2 8 0
13.6 8 0
14 8 0
14.4 8 0
14.8 8 0
15.2 8 0
15.6 8 0
16 8 0
16.4 8 0
16.8 8 0
17.2 8 0
17.6 8 0
18 8 0
18.4 8 0
18.8 8 0
19.2 8 0
19.6 8 0
20 8 0
0 8.4 0
0.4 8.4 0
0.8 8.4 0
1.2 8.4 0
1.6 8.4 0
2 8.4 0
2.4 8.4 0
2.8 8.4 0
3.2 8.4 0
3.6 8.4 0
4 8.4 0
4.4 8.4 0
4.8 8.4 0
5.2 8.4 0
5.6 8.4 0
6 8.4 0
6.4 8.4 0
6.8 8.4 0
7.2 8.4 0
7.6 8.4 0
8 8.4 0
8.4 8.4 0
8.8 8.4 0
9.2 8.4 0
9.6 8.4 0
10 8.4 0
10.4 8.4 0
10.8 8.4 0
11.2 8.4 0
11.6 8.4 0
12 8.4 0
12.4 8.4 0
12.8 8.4 0
13.2 8.4 0
13.6 8.4 0
14 8.4 0
14.4 8.4 0
14.8 8.4 0
15.2 8.4 0
15.6 8.4 0
16 8.4 0
16.4 8.4 0
16.8 8.4 0
17.2 8.4 0
17.6 8.4 0
18 8.4 0
18.4 8.4 0
18.8 8.4 0
19.2 8.4 0
19.6 8.4 0
20 8.4 0
0 8.8 0
0.4 8.8 0
0.8 8.8 0
1.2 8.8 0
1.6 8.8 0
2 8.8 0
2.4 8.8 0
2.8 8.8 0
3.2 8.8 0
3.6 8.8 0
4 8.8 0
4.4 8.8 0
4.8 8.8 0
5.2 8.8 0
5.6 8.8 0
6 8.8 0
6.4 8.8 0
6.8 8.8 0
7.2 8.8 0
7.6 8.8 0
8 8.8 0
8.4 8.8 0
8.8 8.8 0
9.2 8.8 0
9.6 8.8 0
10 8.8 0
10.4 8.8 0
10.8 8.8 0
11.2 8.8 0
11.6 8.8 0
12 8.8 0
12.4 8.8 0
12.8 8.8 0
13.2 8.8 0
13.6 8.8 0
14 8.8 0
14.4 8.8 0
14.8 8.8 0
15.2 8.8 0
15.6 8.8 0
16 8.8 0
16.4 8.8 0
16.8 8.8 0
17.2 8.8 0
17.6 8.8 0
18 8.8 0
18.4 8.8 0
18.8 8.8 0
19.2 8.8 0
19.6 8.8 0
20 8.8 0
0 9.2 0
0.4 9.2 0
0.8 9.2 0
1.2 9.2 0
1.6 9.2 0
2 9.2 0
2.4 9.2 0
2.8 9.2 0
3.2 9.2 0
3.6 9.2 0
4 9.2 0
4.4 9.2 0
4.8 9.2 0
5.2 9.2 0
5.6 9.2 0
6 9.2 0
6.4 9.2 0
6.8 9.2 0
7.2 9.2 0
7.6 9.2 0
8 9.2 0
8.4 9.2 0
8.8 9.2 0
9.2 9.2 0
9.6 9.2 0
10 9.2 0
10.4 9.2 0
10.8 9.2 0
11.2 9.2 0
11.6 9.2 0
12 9.2 0
12.4 9.2 0
12.8 9.2 0
13.2 9.2 0
13.6 9.2 0
14 9.2 0
14.4 9.2 0
14.8 9.2 0
15.2 9.2 0
15.6 9.2 0
16 9.2 0
16.4 9.2 0
16.8 9.2 0
17.2 9.2 0
17.6 9.2 0
18 9.2 0
18.4 9.2 0
18.8 9.2 0
19.2 9.2 0
19.6 9.2 0
20 9.2 0
0 9.6 0
0.4 9.6 0
0.8 9.6 0
1.2 9.6 0
1.6 9.6 0
2 9.6 0
2.4 9.6 0
2.8 9.6 0
3.2 9.6 0
3.6 9.6 0
4 9.6 0
4.4 9.6 0
4.8 9.6 0
5.2 9.6 0
5.6 9.6 0
6 9.6 0
6.4 9.6 0
6.8 9.6 0
7.2 9.6 0
7.6 9.6 0
8 9.6 0
8.4 9.6 0
8.8 9.6 0
9.2 9.6 0
9.6 9.6 0
10 9.6 0
10.4 9.6 0
10.8 9.6 0
11.2 9.6 0
11.6 9.6 0
12 9.6 0
12.4 9.6 0
12.8 9.6 0
13.2 9.6 0
13.6 9.6 0
14 9.6 0
14.4 9.6 0
14.8 9.6 0
15.2 9.6 0
15.6 9.6 0
16 9.6 0
16.4 9.6 0
16.8 9.6 0
17.2 9.6 0
17.6 9.6 0
18 9.6 0
18.4 9.6 0
18.8 9.6 0
19.2 9.6 0
19.6 9.6 0
20 9.6 0
0 10 0
0.4 10 0
0.8 10 0
1.2 10 0
1.6 10 0
2 10 0
2.4 10 0
2.8 10 0
3.2 10 0
3.6 10 0
4 10 0
4.4 10 0
4.8 10 0
5.2 10 0
5.6 10 0
6 10 0
6.4 10 0
6.8 10 0
7.2 10 0
7.6 10 0
8 10 0
8.4 10 0
8.8 10 0
9.2 10 0
9.6 10 0
10 10 0
10.4 10 0
10.8 10 0
11.2 10 0
11.6 10 0
12 10 0
12.4 10 0
12.8 10 0
13.2 10 0
13.6 10 0
14 10 0
14.4 10 0
14.8 10 0
15.2 10 0
15.6 10 0
16 10 0
16.4 10 0
16.8 10 0
17.2 10 0
17.6 10 0
18 10 0
18.4 10 0
18.8 10 0
19.2 10 0
19.6 10 0
20 10 0

CELL_DATA 1250
SCALARS phi float
LOOKUP_TABLE default 
4.711
4.711
4.711
4.711
4.711
4.711
4.711
4.711
4.711
4.711
4.711
4.711
4.711
4.711
4.711
4.711
4.711
4.711
4.711
4.711
4.711
4.711
4.711
4.711
4.711
4.711
4.711
4.711
4.711
4.711
4.711
4.711
4.711
4.711
4.711
4.711
4.711
4.711
4.711
4.711
4.711
4.711
4.711
4.711
4.711
4.711
4.711
4.711
4.711
4.711
4.711
4.711
4.711
4.711
4.711
4.711
4.711
4.711
4.711
4.711
4.711
4.711
4.711
4.711
4.711
4.711
4.711
4.711
4.711
4.711
4.711
4.711
4.711
4.711
4.711
4.711
4.711
4.711
4.711
4.711
4.711
4.711
4.711
4.711
4.711
4.711
4.711
4.711
4.711
4.711
4.711
4.711
4.711
4.711
4.711
4.711
4.711
4.711
4.711
4.711
4.711
4.711
4.711
4.711
4.711
4.711
4.711
4.711
4.711
4.711
4.711
4.711
4.711
4.711
4.711
4.711
4.711
4.711
4.711
4.711
4.711
4.711
4.711
4.711
4.711
4.711
4.711
4.711
4.711
4.711
4.711
4.711
4.711
4.711
4.711
4.711
4.711
4.711
4.711
4.711
4.711
4.711
4.711
4.711
4.711
4.711
4.711
4.711
4.711
4.711
4.711
4.711
4.711
4.711
4.711
4.711
4.711
4.711
4.711
4.711
4.711
4.711
4.711
4.711
4.711
4.711
4.711
4.711
4.711
4.711
4.711
4.711
4.711
4.711
4.711
4.711
4.711
4.711
4.711
4.711
4.711
4.711
4.711
4.711
4.711
4.711
4.711
4.711
4.711
4.711
4.711
4.711
4.711
4.711
4.711
4.711
4.711
4.711
4.711
4.711
4.711
4.711
4.711
4.711
4.711
4.711
4.711
4.711
4.711
4.711
4.711
4.711
4.711
4.711
4.711
4.711
4.711
4.711
4.711
4.711
4.711
4.711
4.711
4.711
4.711
4.711
4.711
4.711
4.711
4.711
4.711
4.711
4.711
4.711
4.711
4.711
4.711
4.711
4.711
4.711
4.711
4.711
4.711
4.711
4.711
4.711
4.711
4.711
4.711
4.711
4.711
4.711
4.711
4.711
4.711
4.711
4.711
4.711
4.711
4.711
4.711
4.711
4.711
4.711
4.711
4.711
4.711
4.711
4.711
4.711
4.711
4.711
4.711
4.711
4.711
4.711
4.711
4.711
4.711
4.711
4.711
4.711
4.711
4.711
4.711
4.711
4.711
4.711
4.711
4.711
4.711
4.711
4.711
4.711
4.711
4.711
4.711
4.711
4.711
4.711
4.711
4.711
4.711
4.711
4.711
4.711
4.711
4.711
4.711
4.711
4.711
4.711
4.711
4.711
4.711
4.711
4.711
4.711
4.711
4.711
4.711
4.711
4.711
4.711
4.711
4.711
4.711
4.711
4.711
4.711
4.711
4.711
4.711
4.711
4.711
4.711
4.711
4.711
4.711
4.711
4.711
4.711
4.711
4.711
4.711
4.711
4.711
4.711
4.711
4.711
4.711
4.711
4.711
4.711
4.711
4.711
4.711
4.711
4.711
4.711
4.711
4.711
4.711
4.711
4.711
4.711
4.711
4.711
4.711
4.711
4.711
4.711
4.711
4.711
4.711
4.711
4.711
4.711
4.711
4.711
4.711
4.711
4.711
4.711
4.711
4.711
4.711
4.711
4.711
4.711
4.711
4.711
4.711
4.711
4.711
4.711
4.711
4.711
4.711
4.711
4.711
4.711
4.711
4.711
4.711
4.711
4.711
4.711
4.711
4.711
4.711
4.711
4.711
4.711
4.711
4.711
4.711
4.711
4.711
4.711
4.711
4.711
4.711
4.711
4.711
4.711
4.711
4.711
4.711
4.711
4.711
4.711
4.711
4.711
4.711
4.711
4.711
4.711
4.711
4.711
4.711
4.711
4.711
4.711
4.711
4.711
4.711
4.711
4.711
4.711
4.711
4.711
4.711
4.711
4.711
4.711
4.711
4.711
4.711
4.711
4.711
4.711
4.711
4.711
4.711
4.711
4.711
4.711
4.711
4.711
4.711
4.711
4.711
4.711
4.711
4.711
4.711
4.711
4.711
4.711
4.711
4.711
4.711
4.711
4.711
4.711
4.711
4.711
4.711
4.711
4.711
4.711
4.711
4.711
4.711
4.711
4.711
4.711
4.711
4.711
4.711
4.711
4.711
4.711
4.711
4.711
4.711
4.711
4.711
4.711
4.711
4.711
4.711
4.711
4.711
4.711
4.711
4.711
4.711
4.711
4.711
4.711
4.711
4.711
4.711
4.711
4.711
4.711
4.711
4.711
4.711
4.711
4.711
4.711
4.711
4.711
4.711
4.711
4.711
4.711
4.711
4.711
4.711
4.711
4.711
4.711
4.711
4.711
4.711
4.711
4.711
4.711
4.711
4.711
4.711
4.711
4.711
4.711
4.711
4.711
4.711
4.711
4.711
4.711
4.711
4.711
4.711
4.711
4.711
4.711
4.711
4.711
4.711
4.711
4.711
4.711
4.711
4.711
4.711
4.711
4.711
4.711
4.711
4.711
4.711
4.711
4.711
4.711
4.711
4.711
4.711
4.711
4.711
4.711
4.711
4.711
4.711
4.711
4.711
4.711
4.711
4.711
4.711
4.711
4.711
4.711
4.711
4.711
4.711
4.711
4.711
4.711
4.711
4.711
4.711
4.711
4.711
4.711
4.711
4.711
4.711
4.711
4.711
4.711
4.711
4.711
4.711
4.711
4.711
4.711
4.711
4.711
4.711
4.711
4.711
4.711
4.711
4.711
4.711
4.711
4.711
4.711
4.711
4.711
4.711
4.711
4.711
4.711
4.711
4.711
4.711
4.711
4.711
4.711
4.711
4.711
4.711
4.711
4.711
4.711
4.711
4.711
4.711
4.711
4.711
4.711
4.711
4.711
4.711
4.711
4.711
4.711
4.711
4.711
4.711
4.711
4.711
4.711
4.711
4.711
4.711
4.711
4.711
4.711
4.711
4.711
4.711
4.711
4.711
4.711
4.711
4.711
4.711
4.711
4.711
4.711
4.711
4.711
4.711
4.711
4.711
4.711
4.711
4.711
4.711
4.711
4.711
4.711
4.711
4.711
4.711
4.711
4.711
4.711
4.711
4.711
4.711
4.711
4.711
4.711
4.711
4.711
4.711
4.711
4.711
4.711
4.711
4.711
4.711
4.711
4.711
4.711
4.711
4.711
4.711
4.711
4.711
4.711
4.711
4.711
4.711
4.711
4.711
4.711
4.711
4.711
4.711
4.711
4.711
4.711
4.711
4.711
4.711
4.711
4.711
4.711
4.711
4.711
4.711
4.711
4.711
4.711
4.711
4.711
4.711
4.711
4.711
4.711
4.711
4.711
4.711
4.711
4.711
4.711
4.711
4.711
4.711
4.711
4.711
4.711
4.711
4.711
4.711
4.711
4.711
4.711
4.711
4.711
4.711
4.711
4.711
4.711
4.711
4.711
4.711
4.711
4.711
4.711
4.711
4.711
4.711
4.711
4.711
4.711
4.711
4.711
4.711
4.711
4.711
4.711
4.711
4.711
4.711
4.711
4.711
4.711
4.711
4.711
4.711
4.711
4.711
4.711
4.711
4.711
4.711
4.711
4.711
4.711
4.711
4.711
4.711
4.711
4.711
4.711
4.711
4.711
4.711
4.711
4.711
4.711
4.711
4.711
4.711
4.711
4.711
4.711
4.711
4.711
4.711
4.711
4.711
4.711
4.711
4.711
4.711
4.711
4.711
4.711
4.711
4.711
4.711
4.711
4.711
4.711
4.711
4.711
4.711
4.711
4.711
4.711
4.711
4.711
4.711
4.711
4.711
4.711
4.711
4.711
4.711
4.711
4.711
4.711
4.711
4.711
4.711
4.711
4.711
4.711
4.711
4.711
4.711
4.711
4.711
4.711
4.711
4.711
4.711
4.711
4.711
4.711
4.711
4.711
4.711
4.711
4.711
4.711
4.711
4.711
4.711
4.711
4.711
4.711
4.711
4.711
4.711
4.711
4.711
4.711
4.711
4.711
4.711
4.711
4.711
4.711
4.711
4.711
4.711
4.711
4.711
4.711
4.711
4.711
4.711
4.711
4.711
4.711
4.711
4.711
4.711
4.711
4.711
4.711
4.711
4.711
4.711
4.711
4.711
4.711
4.711
4.711
4.711
4.711
4.711
4.711
4.711
4.711
4.711
4.711
4.711
4.711
4.711
4.711
4.711
4.711
4.711
4.711
4.711
4.711
4.711
4.711
4.711
4.711
4.711
4.711
4.711
4.711
4.711
4.711
4.711
4.711
4.711
4.711
4.711
4.711
4.711
4.711
4.711
4.711
4.711
4.711
4.711
4.711
4.711
4.711
4.711
4.711
4.711
4.711
4.711
4.711
4.711
4.711
4.711
4.711
4.711
4.711
4.711
4.711
4.711
4.711
4.711
4.711
4.711
4.711
4.711
4.711
4.711
4.711
4.711
4.711
4.711
4.711
4.711
4.711
4.711
4.711
4.711
4.711
4.711
4.711
4.711
4.711
4.711
4.711
4.711
4.711
4.711
4.711
4.711
4.711
4.711
4.711
4.711
4.711
4.711
4.711
4.711
4.711
4.711
4.711
4.711
4.711
4.711
4.711
4.711
4.711
4.711
4.711
4.711
4.711
4.711
4.711
4.711
4.711
4.711
4.711
4.711
4.711
4.711
4.711
4.711
4.711
4.711
4.711
4.711
4.711
4.711
4.711
4.711
4.711
4.711
4.711
4.711
4.711
4.711
4.711
4.711
4.711
4.711
4.711
4.711
4.711
4.711
4.711
4.711
4.711
4.711
4.711
4.711
4.711
4.711
4.711
4.711
4.711
4.711
4.711
4.711
4.711
4.711
4.711
4.711
4.711
4.711
4.711
4.711
4.711
4.711
4.711
4.711
4.711
4.711
4.711
4.711
4.711
4.711
4.711
4.711
4.711
4.711
4.711
4.711
4.711
4.711
4.711
4.711
4.711
4.711
4.711
4.711
4.711
4.711
4.711
4.711
4.711
4.711
4.711
4.711
4.711
4.711
4.711
4.711
4.711
4.711
4.711
4.711
4.711
4.711
4.711
4.711
4.711
4.711
4.711
4.711
4.711
4.711
4.711
4.711
4.711
4.711
4.711
4.711
4.711
4.711
4.711
4.711
4.711
4.711
4.711
4.711
4.711
4.711
4.711
4.711
4.711
4.711
4.711
4.711
4.711
4.711
4.711
4.711
4.711
4.711
4.711
4.711
4.711
4.711
4.711
4.711
4.711
4.711
4.711
4.711
4.711
4.711
4.711
4.711
4.711
4.711
4.711
4.711
4.711
4.711
4.711
4.711
4.711
4.711
4.711
4.711
4.711
4.711
4.711
4.711
4.711
4.711
4.711
4.711
4.711
4.711
4.711
4.711
4.711
4.711
4.711
4.711
4.711
4.711
4.711
4.711
4.711
4.711
4.711
4.711
4.711
4.711
4.711
4.711
4.711
4.711
4.711

SCALARS p float
LOOKUP_TABLE default 
-24.6342
-24.6342
-26.2183
-27.2323
-27.4649
-26.8019
-25.2725
-23.0047
-20.1639
-16.9168
-13.4255
-9.85271
-6.35584
-3.06489
-0.0586194
2.64065
5.0508
7.20639
9.14288
10.8923
12.4833
13.9389
15.2702
16.4728
17.5296
18.4193
19.125
19.6401
19.9691
20.1259
20.1298
20.0026
19.7658
19.4394
19.0406
18.584
18.0816
17.5433
16.9769
16.3885
15.7832
15.1647
14.5361
13.8998
13.2577
12.6111
11.9613
11.309
10.655
10
-24.6342
-24.6342
-26.2183
-27.2323
-27.4649
-26.8019
-25.2725
-23.0047
-20.1639
-16.9168
-13.4255
-9.85271
-6.35584
-3.06489
-0.0586194
2.64065
5.0508
7.20639
9.14288
10.8923
12.4833
13.9389
15.2702
16.4728
17.5296
18.4193
19.125
19.6401
19.9691
20.1259
20.1298
20.0026
19.7658
19.4394
19.0406
18.584
18.0816
17.5433
16.9769
16.3885
15.7832
15.1647
14.5361
13.8998
13.2577
12.6111
11.9613
11.309
10.655
10
-24.6458
-24.6458
-25.6543
-26.4656
-26.7478
-26.3535
-25.2632
-23.5359
-21.2612
-18.5313
-15.4415
-12.1038
-8.65018
-5.21618
-1.91465
1.17981
4.02813
6.61413
8.93482
10.9976
12.8197
14.4234
15.828
17.0437
18.0708
18.9048
19.5431
19.989
20.2532
20.3528
20.3083
20.1413
19.8727
19.5211
19.1027
18.631
18.1171
17.57
16.9969
16.4034
15.7943
15.1729
14.5421
13.9042
13.2608
12.6133
11.9627
11.3099
10.6554
10
-23.4861
-23.4861
-24.1117
-24.7712
-25.2052
-25.2757
-24.8998
-24.0344
-22.6589
-20.7618
-18.3567
-15.4993
-12.2823
-8.81807
-5.22413
-1.614
1.90461
5.23077
8.27637
10.9771
13.3015
15.2503
16.8471
18.1252
19.1184
19.857
20.3685
20.679
20.8142
20.7993
20.6579
20.4118
20.0799
19.6788
19.222
18.7208
18.1845
17.6203
17.0343
16.4312
15.8148
15.1879
14.5531
13.9121
13.2664
12.6171
11.9652
11.3113
10.656
10
-20.8333
-20.8333
-21.2876
-21.9481
-22.7263
-23.5644
-24.281
-24.6832
-24.5965
-23.8609
-22.3999
-20.2371
-17.4245
-14.0128
-10.0801
-5.76734
-1.28162
3.13349
7.24436
10.871
13.9126
16.3478
18.2155
19.587
20.5432
21.1609
21.5074
21.6388
21.601
21.4305
21.1559
20.7997
20.3791
19.9078
19.3962
18.8527
18.2838
17.6949
17.0901
16.4727
15.8455
15.2106
14.5697
13.9241
13.2749
12.623
11.969
11.3135
10.657
10
-16.5137
-16.5137
-16.8697
-17.5878
-18.8817
-20.9532
-23.3463
-25.6263
-27.4116
-28.2877
-28.0834
-26.8916
-24.7334
-21.5065
-17.161
-11.8495
-5.93665
0.0928247
5.75853
10.6921
14.6955
17.7388
19.9116
21.3617
22.2455
22.7026
22.8468
22.7665
22.5274
22.1769
21.7483
21.2642
20.7399
20.1858
19.6092
19.015
18.407
17.788
17.1601
16.5252
15.8847
15.2397
14.5911
13.9397
13.2861
12.6308
11.9742
11.3167
10.6585
10
-10.4672
-10.4672
-10.595
-11.1192
-12.8746
-17.0228
-22.004
-27.0401
-31.5645
-34.569
-35.8097
-35.8609
-34.7478
-31.9769
-27.1772
-20.4961
-12.5623
-4.24947
3.58271
10.2926
15.5574
19.3568
21.8751
23.383
24.1497
24.3996
24.303
23.9821
23.5213
22.9763
22.383
21.7629
21.1286
20.4867
19.8407
19.1924
18.5423
17.8907
17.2379
16.5839
15.9288
15.2726
14.6155
13.9577
13.2991
12.64
11.9805
11.3205
10.6603
10
-2.9352
-2.9352
-2.40585
-1.78574
-3.0233
-11.3938
-20.2896
-29.0957
-37.6772
-43.1645
-45.2556
-46.5118
-46.9686
-45.1345
-39.9368
-31.5213
-20.9609
-9.71582
0.830095
9.69658
16.441
21.0946
23.9826
25.5341
26.1538
26.1648
25.8007
25.2202
24.5255
23.7795
23.0185
22.2615
21.517
20.7877
20.0729
19.3706
18.6787
17.9948
17.317
16.6438
15.9739
15.3065
14.6408
13.9764
13.3128
12.6497
11.987
11.3246
10.6623
10
5.2095
5.2095
7.07273
10.9798
14.9208
-5.4171
-18.9694
-31.2097
-45.7319
-53.8234
-54.139
-55.8492
-58.4355
-58.2295
-52.8988
-42.6393
-29.2071
-14.8349
-1.50278
9.48748
17.6249
23.0369
26.212
27.7444
28.1728
27.9156
27.2664
26.4174
25.4866
24.5415
23.6173
22.729
21.8803
21.0688
20.2896
19.5373
18.8064
18.0924
17.3913
16.7002
16.0166
15.3386
14.6649
13.9942
13.3258
12.659
11.9934
11.3285
10.6642
10
12.2002
12.2002
15.4825
24.5071
14.9208
-5.4171
-18.9694
-31.2097
-45.7319
-64.3885
-59.4653
-60.9126
-65.2296
-66.5735
-61.2325
-49.378
-33.5701
-16.8197
-1.55351
10.7734
19.6826
25.4201
28.6105
29.9681
30.1243
29.5624
28.6171
27.5026
26.3458
25.2152
24.142
23.1359
22.1948
21.3114
20.4765
19.6808
18.9165
18.1765
17.4555
16.749
16.0536
15.3666
14.6858
14.0098
13.3372
12.6672
11.999
11.332
10.6658
10
16.0724
16.0724
18.4834
24.5071
24.5071
0
0
0
-64.3885
-64.3885
-60.5883
-62.4519
-66.7321
-67.8037
-61.9287
-49.158
-32.2938
-14.6571
1.17631
13.7347
22.6073
28.1348
31.0219
32.0382
31.852
30.9707
29.7431
28.3895
27.0371
25.7503
24.5545
23.4533
22.4389
21.499
20.6205
19.7914
19.0012
18.2413
17.505
16.7867
16.0822
15.3881
14.702
14.0218
13.3461
12.6736
12.0034
11.3348
10.6671
10
17.3005
17.3005
17.8612
17.8612
0
0
0
0
0
-59.5023
-59.5023
-61.7708
-64.7904
-64.3359
-57.4316
-44.3028
-27.5936
-10.3602
5.01411
17.0849
25.4514
30.4958
32.9519
33.597
33.0964
31.9522
30.5086
28.9811
27.4913
26.0976
24.8199
23.6561
22.594
21.6177
20.7115
19.8611
19.0546
18.2822
17.5362
16.8105
16.1002
15.4018
14.7123
14.0295
13.3517
12.6776
12.0061
11.3365
10.668
10
17.59
17.59
17.7718
17.7718
0
0
0
0
0
-58.5315
-58.5315
-60.746
-63.1075
-61.8975
-54.556
-41.3448
-24.8595
-8.07062
6.87917
18.615
26.6854
31.4717
33.7163
34.1932
33.5594
32.3098
30.783
29.1905
27.6505
26.2185
24.9117
23.7259
22.6472
21.6584
20.7426
19.8849
19.0728
18.2961
17.5468
16.8186
16.1064
15.4064
14.7158
14.0321
13.3536
12.679
12.0071
11.3371
10.6683
10
17.3005
17.3005
17.8612
17.8612
0
0
0
0
0
-59.5023
-59.5023
-61.7708
-64.7904
-64.3359
-57.4316
-44.3028
-27.5936
-10.3602
5.01411
17.0849
25.4514
30.4958
32.9519
33.597
33.0964
31.9522
30.5086
28.9811
27.4913
26.0976
24.8199
23.6561
22.594
21.6177
20.7115
19.8611
19.0546
18.2822
17.5362
16.8105
16.1002
15.4018
14.7123
14.0295
13.3517
12.6776
12.0061
11.3365
10.668
10
16.0724
16.0724
18.4834
24.5071
24.5071
0
0
0
-64.3885
-64.3885
-60.5883
-62.4519
-66.7321
-67.8037
-61.9287
-49.158
-32.2938
-14.6571
1.17631
13.7347
22.6073
28.1348
31.0219
32.0382
31.852
30.9707
29.7431
28.3895
27.0371
25.7503
24.5545
23.4533
22.4389
21.499
20.6205
19.7914
19.0012
18.2413
17.505
16.7867
16.0822
15.3881
14.702
14.0218
13.3461
12.6736
12.0034
11.3348
10.6671
10
12.2002
12.2002
15.4825
24.5071
14.9208
-5.4171
-18.9694
-31.2097
-45.7319
-64.3885
-59.4653
-60.9126
-65.2296
-66.5735
-61.2325
-49.378
-33.5701
-16.8197
-1.55351
10.7734
19.6826
25.4201
28.6105
29.9681
30.1243
29.5624
28.6171
27.5026
26.3458
25.2152
24.142
23.1359
22.1948
21.3114
20.4765
19.6808
18.9165
18.1765
17.4555
16.749
16.0536
15.3666
14.6858
14.0098
13.3372
12.6672
11.999
11.332
10.6658
10
5.2095
5.2095
7.07273
10.9798
14.9208
-5.4171
-18.9694
-31.2097
-45.7319
-53.8234
-54.139
-55.8492
-58.4355
-58.2295
-52.8988
-42.6393
-29.2071
-14.8349
-1.50278
9.48748
17.6249
23.0369
26.212
27.7444
28.1728
27.9156
27.2664
26.4174
25.4866
24.5415
23.6173
22.729
21.8803
21.0688
20.2896
19.5373
18.8064
18.0924
17.3913
16.7002
16.0166
15.3386
14.6649
13.9942
13.3258
12.659
11.9934
11.3285
10.6642
10
-2.9352
-2.9352
-2.40585
-1.78574
-3.0233
-11.3938
-20.2896
-29.0957
-37.6772
-43.1645
-45.2556
-46.5118
-46.9686
-45.1345
-39.9368
-31.5213
-20.9609
-9.71582
0.830095
9.69658
16.441
21.0946
23.9826
25.5341
26.1538
26.1648
25.8007
25.2202
24.5255
23.7795
23.0185
22.2615
21.517
20.7877
20.0729
19.3706
18.6787
17.9948
17.317
16.6438
15.9739
15.3065
14.6408
13.9764
13.3128
12.6497
11.987
11.3246
10.6623
10
-10.4672
-10.4672
-10.595
-11.1192
-12.8746
-17.0228
-22.004
-27.0401
-31.5645
-34.569
-35.8097
-35.8609
-34.7478
-31.9769
-27.1772
-20.4961
-12.5623
-4.24947
3.58271
10.2926
15.5574
19.3568
21.8751
23.383
24.1497
24.3996
24.303
23.9821
23.5213
22.9763
22.383
21.7629
21.1286
20.4867
19.8407
19.1924
18.5423
17.8907
17.2379
16.5839
15.9288
15.2726
14.6155
13.9577
13.2991
12.64
11.9805
11.3205
10.6603
10
-16.5137
-16.5137
-16.8697
-17.5878
-18.8817
-20.9532
-23.3463
-25.6263
-27.4116
-28.2877
-28.0834
-26.8916
-24.7334
-21.5065
-17.161
-11.8495
-5.93665
0.0928247
5.75853
10.6921
14.6955
17.7388
19.9116
21.3617
22.2455
22.7026
22.8468
22.7665
22.5274
22.1769
21.7483
21.2642
20.7399
20.1858
19.6092
19.015
18.407
17.788
17.1601
16.5252
15.8847
15.2397
14.5911
13.9397
13.2861
12.6308
11.9742
11.3167
10.6585
10
-20.8333
-20.8333
-21.2876
-21.9481
-22.7263
-23.5644
-24.281
-24.6832
-24.5965
-23.8609
-22.3999
-20.2371
-17.4245
-14.0128
-10.0801
-5.76734
-1.28162
3.13349
7.24436
10.871
13.9126
16.3478
18.2155
19.587
20.5432
21.1609
21.5074
21.6388
21.601
21.4305
21.1559
20.7997
20.3791
19.9078
19.3962
18.8527
18.2838
17.6949
17.0901
16.4727
15.8455
15.2106
14.5697
13.9241
13.2749
12.623
11.969
11.3135
10.657
10
-23.4861
-23.4861
-24.1117
-24.7712
-25.2052
-25.2757
-24.8998
-24.0344
-22.6589
-20.7618
-18.3567
-15.4993
-12.2823
-8.81807
-5.22413
-1.614
1.90461
5.23077
8.27637
10.9771
13.3015
15.2503
16.8471
18.1252
19.1184
19.857
20.3685
20.679
20.8142
20.7993
20.6579
20.4118
20.0799
19.6788
19.222
18.7208
18.1845
17.6203
17.0343
16.4312
15.8148
15.1879
14.5531
13.9121
13.2664
12.6171
11.9652
11.3113
10.656
10
-24.6458
-24.6458
-25.6543
-26.4656
-26.7478
-26.3535
-25.2632
-23.5359
-21.2612
-18.5313
-15.4415
-12.1038
-8.65018
-5.21618
-1.91465
1.17981
4.02813
6.61413
8.93482
10.9976
12.8197
14.4234
15.828
17.0437
18.0708
18.9048
19.5431
19.989
20.2532
20.3528
20.3083
20.1413
19.8727
19.5211
19.1027
18.631
18.1171
17.57
16.9969
16.4034
15.7943
15.1729
14.5421
13.9042
13.2608
12.6133
11.9627
11.3099
10.6554
10
-24.6342
-24.6342
-26.2183
-27.2323
-27.4649
-26.8019
-25.2725
-23.0047
-20.1639
-16.9168
-13.4255
-9.85271
-6.35584
-3.06489
-0.0586194
2.64065
5.0508
7.20639
9.14288
10.8923
12.4833
13.9389
15.2702
16.4728
17.5296
18.4193
19.125
19.6401
19.9691
20.1259
20.1298
20.0026
19.7658
19.4394
19.0406
18.584
18.0816
17.5433
16.9769