# vtk DataFile Version 3.0
vtk output128
ASCII
DATASET STRUCTURED_GRID
DIMENSIONS 51 26 1
POINTS 1326 float
0 0 0
0.4 0 0
0.8 0 0
1.2 0 0
1.6 0 0
2 0 0
2.4 0 0
2.8 0 0
3.2 0 0
3.6 0 0
4 0 0
4.4 0 0
4.8 0 0
5.2 0 0
5.6 0 0
6 0 0
6.4 0 0
6.8 0 0
7.2 0 0
7.6 0 0
8 0 0
8.4 0 0
8.8 0 0
9.2 0 0
9.6 0 0
10 0 0
10.4 0 0
10.8 0 0
11.2 0 0
11.6 0 0
12 0 0
12.4 0 0
12.8 0 0
13.2 0 0
13.6 0 0
14 0 0
14.4 0 0
14.8 0 0
15.2 0 0
15.6 0 0
16 0 0
16.4 0 0
16.8 0 0
17.2 0 0
17.6 0 0
18 0 0
18.4 0 0
18.8 0 0
19.2 0 0
19.6 0 0
20 0 0
0 0.4 0
0.4 0.4 0
0.8 0.4 0
1.2 0.4 0
1.6 0.4 0
2 0.4 0
2.4 0.4 0
2.8 0.4 0
3.2 0.4 0
3.6 0.4 0
4 0.4 0
4.4 0.4 0
4.8 0.4 0
5.2 0.4 0
5.6 0.4 0
6 0.4 0
6.4 0.4 0
6.8 0.4 0
7.2 0.4 0
7.6 0.4 0
8 0.4 0
8.4 0.4 0
8.8 0.4 0
9.2 0.4 0
9.6 0.4 0
10 0.4 0
10.4 0.4 0
10.8 0.4 0
11.2 0.4 0
11.6 0.4 0
12 0.4 0
12.4 0.4 0
12.8 0.4 0
13.2 0.4 0
13.6 0.4 0
14 0.4 0
14.4 0.4 0
14.8 0.4 0
15.2 0.4 0
15.6 0.4 0
16 0.4 0
16.4 0.4 0
16.8 0.4 0
17.2 0.4 0
17.6 0.4 0
18 0.4 0
18.4 0.4 0
18.8 0.4 0
19.2 0.4 0
19.6 0.4 0
20 0.4 0
0 0.8 0
0.4 0.8 0
0.8 0.8 0
1.2 0.8 0
1.6 0.8 0
2 0.8 0
2.4 0.8 0
2.8 0.8 0
3.2 0.8 0
3.6 0.8 0
4 0.8 0
4.4 0.8 0
4.8 0.8 0
5.2 0.8 0
5.6 0.8 0
6 0.8 0
6.4 0.8 0
6.8 0.8 0
7.2 0.8 0
7.6 0.8 0
8 0.8 0
8.4 0.8 0
8.8 0.8 0
9.2 0.8 0
9.6 0.8 0
10 0.8 0
10.4 0.8 0
10.8 0.8 0
11.2 0.8 0
11.6 0.8 0
12 0.8 0
12.4 0.8 0
12.8 0.8 0
13.2 0.8 0
13.6 0.8 0
14 0.8 0
14.4 0.8 0
14.8 0.8 0
15.2 0.8 0
15.6 0.8 0
16 0.8 0
16.4 0.8 0
16.8 0.8 0
17.2 0.8 0
17.6 0.8 0
18 0.8 0
18.4 0.8 0
18.8 0.8 0
19.2 0.8 0
19.6 0.8 0
20 0.8 0
0 1.2 0
0.4 1.2 0
0.8 1.2 0
1.2 1.2 0
1.6 1.2 0
2 1.2 0
2.4 1.2 0
2.8 1.2 0
3.2 1.2 0
3.6 1.2 0
4 1.2 0
4.4 1.2 0
4.8 1.2 0
5.2 1.2 0
5.6 1.2 0
6 1.2 0
6.4 1.2 0
6.8 1.2 0
7.2 1.2 0
7.6 1.2 0
8 1.2 0
8.4 1.2 0
8.8 1.2 0
9.2 1.2 0
9.6 1.2 0
10 1.2 0
10.4 1.2 0
10.8 1.2 0
11.2 1.2 0
11.6 1.2 0
12 1.2 0
12.4 1.2 0
12.8 1.2 0
13.2 1.2 0
13.6 1.2 0
14 1.2 0
14.4 1.2 0
14.8 1.2 0
15.2 1.2 0
15.6 1.2 0
16 1.2 0
16.4 1.2 0
16.8 1.2 0
17.2 1.2 0
17.6 1.2 0
18 1.2 0
18.4 1.2 0
18.8 1.2 0
19.2 1.2 0
19.6 1.2 0
20 1.2 0
0 1.6 0
0.4 1.6 0
0.8 1.6 0
1.2 1.6 0
1.6 1.6 0
2 1.6 0
2.4 1.6 0
2.8 1.6 0
3.2 1.6 0
3.6 1.6 0
4 1.6 0
4.4 1.6 0
4.8 1.6 0
5.2 1.6 0
5.6 1.6 0
6 1.6 0
6.4 1.6 0
6.8 1.6 0
7.2 1.6 0
7.6 1.6 0
8 1.6 0
8.4 1.6 0
8.8 1.6 0
9.2 1.6 0
9.6 1.6 0
10 1.6 0
10.4 1.6 0
10.8 1.6 0
11.2 1.6 0
11.6 1.6 0
12 1.6 0
12.4 1.6 0
12.8 1.6 0
13.2 1.6 0
13.6 1.6 0
14 1.6 0
14.4 1.6 0
14.8 1.6 0
15.2 1.6 0
15.6 1.6 0
16 1.6 0
16.4 1.6 0
16.8 1.6 0
17.2 1.6 0
17.6 1.6 0
18 1.6 0
18.4 1.6 0
18.8 1.6 0
19.2 1.6 0
19.6 1.6 0
20 1.6 0
0 2 0
0.4 2 0
0.8 2 0
1.2 2 0
1.6 2 0
2 2 0
2.4 2 0
2.8 2 0
3.2 2 0
3.6 2 0
4 2 0
4.4 2 0
4.8 2 0
5.2 2 0
5.6 2 0
6 2 0
6.4 2 0
6.8 2 0
7.2 2 0
7.6 2 0
8 2 0
8.4 2 0
8.8 2 0
9.2 2 0
9.6 2 0
10 2 0
10.4 2 0
10.8 2 0
11.2 2 0
11.6 2 0
12 2 0
12.4 2 0
12.8 2 0
13.2 2 0
13.6 2 0
14 2 0
14.4 2 0
14.8 2 0
15.2 2 0
15.6 2 0
16 2 0
16.4 2 0
16.8 2 0
17.2 2 0
17.6 2 0
18 2 0
18.4 2 0
18.8 2 0
19.2 2 0
19.6 2 0
20 2 0
0 2.4 0
0.4 2.4 0
0.8 2.4 0
1.2 2.4 0
1.6 2.4 0
2 2.4 0
2.4 2.4 0
2.8 2.4 0
3.2 2.4 0
3.6 2.4 0
4 2.4 0
4.4 2.4 0
4.8 2.4 0
5.2 2.4 0
5.6 2.4 0
6 2.4 0
6.4 2.4 0
6.8 2.4 0
7.2 2.4 0
7.6 2.4 0
8 2.4 0
8.4 2.4 0
8.8 2.4 0
9.2 2.4 0
9.6 2.4 0
10 2.4 0
10.4 2.4 0
10.8 2.4 0
11.2 2.4 0
11.6 2.4 0
12 2.4 0
12.4 2.4 0
12.8 2.4 0
13.2 2.4 0
13.6 2.4 0
14 2.4 0
14.4 2.4 0
14.8 2.4 0
15.2 2.4 0
15.6 2.4 0
16 2.4 0
16.4 2.4 0
16.8 2.4 0
17.2 2.4 0
17.6 2.4 0
18 2.4 0
18.4 2.4 0
18.8 2.4 0
19.2 2.4 0
19.6 2.4 0
20 2.4 0
0 2.8 0
0.4 2.8 0
0.8 2.8 0
1.2 2.8 0
1.6 2.8 0
2 2.8 0
2.4 2.8 0
2.8 2.8 0
3.2 2.8 0
3.6 2.8 0
4 2.8 0
4.4 2.8 0
4.8 2.8 0
5.2 2.8 0
5.6 2.8 0
6 2.8 0
6.4 2.8 0
6.8 2.8 0
7.2 2.8 0
7.6 2.8 0
8 2.8 0
8.4 2.8 0
8.8 2.8 0
9.2 2.8 0
9.6 2.8 0
10 2.8 0
10.4 2.8 0
10.8 2.8 0
11.2 2.8 0
11.6 2.8 0
12 2.8 0
12.4 2.8 0
12.8 2.8 0
13.2 2.8 0
13.6 2.8 0
14 2.8 0
14.4 2.8 0
14.8 2.8 0
15.2 2.8 0
15.6 2.8 0
16 2.8 0
16.4 2.8 0
16.8 2.8 0
17.2 2.8 0
17.6 2.8 0
18 2.8 0
18.4 2.8 0
18.8 2.8 0
19.2 2.8 0
19.6 2.8 0
20 2.8 0
0 3.2 0
0.4 3.2 0
0.8 3.2 0
1.2 3.2 0
1.6 3.2 0
2 3.2 0
2.4 3.2 0
2.8 3.2 0
3.2 3.2 0
3.6 3.2 0
4 3.2 0
4.4 3.2 0
4.8 3.2 0
5.2 3.2 0
5.6 3.2 0
6 3.2 0
6.4 3.2 0
6.8 3.2 0
7.2 3.2 0
7.6 3.2 0
8 3.2 0
8.4 3.2 0
8.8 3.2 0
9.2 3.2 0
9.6 3.2 0
10 3.2 0
10.4 3.2 0
10.8 3.2 0
11.2 3.2 0
11.6 3.2 0
12 3.2 0
12.4 3.2 0
12.8 3.2 0
13.2 3.2 0
13.6 3.2 0
14 3.2 0
14.4 3.2 0
14.8 3.2 0
15.2 3.2 0
15.6 3.2 0
16 3.2 0
16.4 3.2 0
16.8 3.2 0
17.2 3.2 0
17.6 3.2 0
18 3.2 0
18.4 3.2 0
18.8 3.2 0
19.2 3.2 0
19.6 3.2 0
20 3.2 0
0 3.6 0
0.4 3.6 0
0.8 3.6 0
1.2 3.6 0
1.6 3.6 0
2 3.6 0
2.4 3.6 0
2.8 3.6 0
3.2 3.6 0
3.6 3.6 0
4 3.6 0
4.4 3.6 0
4.8 3.6 0
5.2 3.6 0
5.6 3.6 0
6 3.6 0
6.4 3.6 0
6.8 3.6 0
7.2 3.6 0
7.6 3.6 0
8 3.6 0
8.4 3.6 0
8.8 3.6 0
9.2 3.6 0
9.6 3.6 0
10 3.6 0
10.4 3.6 0
10.8 3.6 0
11.2 3.6 0
11.6 3.6 0
12 3.6 0
12.4 3.6 0
12.8 3.6 0
13.2 3.6 0
13.6 3.6 0
14 3.6 0
14.4 3.6 0
14.8 3.6 0
15.2 3.6 0
15.6 3.6 0
16 3.6 0
16.4 3.6 0
16.8 3.6 0
17.2 3.6 0
17.6 3.6 0
18 3.6 0
18.4 3.6 0
18.8 3.6 0
19.2 3.6 0
19.6 3.6 0
20 3.6 0
0 4 0
0.4 4 0
0.8 4 0
1.2 4 0
1.6 4 0
2 4 0
2.4 4 0
2.8 4 0
3.2 4 0
3.6 4 0
4 4 0
4.4 4 0
4.8 4 0
5.2 4 0
5.6 4 0
6 4 0
6.4 4 0
6.8 4 0
7.2 4 0
7.6 4 0
8 4 0
8.4 4 0
8.8 4 0
9.2 4 0
9.6 4 0
10 4 0
10.4 4 0
10.8 4 0
11.2 4 0
11.6 4 0
12 4 0
12.4 4 0
12.8 4 0
13.2 4 0
13.6 4 0
14 4 0
14.4 4 0
14.8 4 0
15.2 4 0
15.6 4 0
16 4 0
16.4 4 0
16.8 4 0
17.2 4 0
17.6 4 0
18 4 0
18.4 4 0
18.8 4 0
19.2 4 0
19.6 4 0
20 4 0
0 4.4 0
0.4 4.4 0
0.8 4.4 0
1.2 4.4 0
1.6 4.4 0
2 4.4 0
2.4 4.4 0
2.8 4.4 0
3.2 4.4 0
3.6 4.4 0
4 4.4 0
4.4 4.4 0
4.8 4.4 0
5.2 4.4 0
5.6 4.4 0
6 4.4 0
6.4 4.4 0
6.8 4.4 0
7.2 4.4 0
7.6 4.4 0
8 4.4 0
8.4 4.4 0
8.8 4.4 0
9.2 4.4 0
9.6 4.4 0
10 4.4 0
10.4 4.4 0
10.8 4.4 0
11.2 4.4 0
11.6 4.4 0
12 4.4 0
12.4 4.4 0
12.8 4.4 0
13.2 4.4 0
13.6 4.4 0
14 4.4 0
14.4 4.4 0
14.8 4.4 0
15.2 4.4 0
15.6 4.4 0
16 4.4 0
16.4 4.4 0
16.8 4.4 0
17.2 4.4 0
17.6 4.4 0
18 4.4 0
18.4 4.4 0
18.8 4.4 0
19.2 4.4 0
19.6 4.4 0
20 4.4 0
0 4.8 0
0.4 4.8 0
0.8 4.8 0
1.2 4.8 0
1.6 4.8 0
2 4.8 0
2.4 4.8 0
2.8 4.8 0
3.2 4.8 0
3.6 4.8 0
4 4.8 0
4.4 4.8 0
4.8 4.8 0
5.2 4.8 0
5.6 4.8 0
6 4.8 0
6.4 4.8 0
6.8 4.8 0
7.2 4.8 0
7.6 4.8 0
8 4.8 0
8.4 4.8 0
8.8 4.8 0
9.2 4.8 0
9.6 4.8 0
10 4.8 0
10.4 4.8 0
10.8 4.8 0
11.2 4.8 0
11.6 4.8 0
12 4.8 0
12.4 4.8 0
12.8 4.8 0
13.2 4.8 0
13.6 4.8 0
14 4.8 0
14.4 4.8 0
14.8 4.8 0
15.2 4.8 0
15.6 4.8 0
16 4.8 0
16.4 4.8 0
16.8 4.8 0
17.2 4.8 0
17.6 4.8 0
18 4.8 0
18.4 4.8 0
18.8 4.8 0
19.2 4.8 0
19.6 4.8 0
20 4.8 0
0 5.2 0
0.4 5.2 0
0.8 5.2 0
1.2 5.2 0
1.6 5.2 0
2 5.2 0
2.4 5.2 0
2.8 5.2 0
3.2 5.2 0
3.6 5.2 0
4 5.2 0
4.4 5.2 0
4.8 5.2 0
5.2 5.2 0
5.6 5.2 0
6 5.2 0
6.4 5.2 0
6.8 5.2 0
7.2 5.2 0
7.6 5.2 0
8 5.2 0
8.4 5.2 0
8.8 5.2 0
9.2 5.2 0
9.6 5.2 0
10 5.2 0
10.4 5.2 0
10.8 5.2 0
11.2 5.2 0
11.6 5.2 0
12 5.2 0
12.4 5.2 0
12.8 5.2 0
13.2 5.2 0
13.6 5.2 0
14 5.2 0
14.4 5.2 0
14.8 5.2 0
15.2 5.2 0
15.6 5.2 0
16 5.2 0
16.4 5.2 0
16.8 5.2 0
17.2 5.2 0
17.6 5.2 0
18 5.2 0
18.4 5.2 0
18.8 5.2 0
19.2 5.2 0
19.6 5.2 0
20 5.2 0
0 5.6 0
0.4 5.6 0
0.8 5.6 0
1.2 5.6 0
1.6 5.6 0
2 5.6 0
2.4 5.6 0
2.8 5.6 0
3.2 5.6 0
3.6 5.6 0
4 5.6 0
4.4 5.6 0
4.8 5.6 0
5.2 5.6 0
5.6 5.6 0
6 5.6 0
6.4 5.6 0
6.8 5.6 0
7.2 5.6 0
7.6 5.6 0
8 5.6 0
8.4 5.6 0
8.8 5.6 0
9.2 5.6 0
9.6 5.6 0
10 5.6 0
10.4 5.6 0
10.8 5.6 0
11.2 5.6 0
11.6 5.6 0
12 5.6 0
12.4 5.6 0
12.8 5.6 0
13.2 5.6 0
13.6 5.6 0
14 5.6 0
14.4 5.6 0
14.8 5.6 0
15.2 5.6 0
15.6 5.6 0
16 5.6 0
16.4 5.6 0
16.8 5.6 0
17.2 5.6 0
17.6 5.6 0
18 5.6 0
18.4 5.6 0
18.8 5.6 0
19.2 5.6 0
19.6 5.6 0
20 5.6 0
0 6 0
0.4 6 0
0.8 6 0
1.2 6 0
1.6 6 0
2 6 0
2.4 6 0
2.8 6 0
3.2 6 0
3.6 6 0
4 6 0
4.4 6 0
4.8 6 0
5.2 6 0
5.6 6 0
6 6 0
6.4 6 0
6.8 6 0
7.2 6 0
7.6 6 0
8 6 0
8.4 6 0
8.8 6 0
9.2 6 0
9.6 6 0
10 6 0
10.4 6 0
10.8 6 0
11.2 6 0
11.6 6 0
12 6 0
12.4 6 0
12.8 6 0
13.2 6 0
13.6 6 0
14 6 0
14.4 6 0
14.8 6 0
15.2 6 0
15.6 6 0
16 6 0
16.4 6 0
16.8 6 0
17.2 6 0
17.6 6 0
18 6 0
18.4 6 0
18.8 6 0
19.2 6 0
19.6 6 0
20 6 0
0 6.4 0
0.4 6.4 0
0.8 6.4 0
1.2 6.4 0
1.6 6.4 0
2 6.4 0
2.4 6.4 0
2.8 6.4 0
3.2 6.4 0
3.6 6.4 0
4 6.4 0
4.4 6.4 0
4.8 6.4 0
5.2 6.4 0
5.6 6.4 0
6 6.4 0
6.4 6.4 0
6.8 6.4 0
7.2 6.4 0
7.6 6.4 0
8 6.4 0
8.4 6.4 0
8.8 6.4 0
9.2 6.4 0
9.6 6.4 0
10 6.4 0
10.4 6.4 0
10.8 6.4 0
11.2 6.4 0
11.6 6.4 0
12 6.4 0
12.4 6.4 0
12.8 6.4 0
13.2 6.4 0
13.6 6.4 0
14 6.4 0
14.4 6.4 0
14.8 6.4 0
15.2 6.4 0
15.6 6.4 0
16 6.4 0
16.4 6.4 0
16.8 6.4 0
17.2 6.4 0
17.6 6.4 0
18 6.4 0
18.4 6.4 0
18.8 6.4 0
19.2 6.4 0
19.6 6.4 0
20 6.4 0
0 6.8 0
0.4 6.8 0
0.8 6.8 0
1.2 6.8 0
1.6 6.8 0
2 6.8 0
2.4 6.8 0
2.8 6.8 0
3.2 6.8 0
3.6 6.8 0
4 6.8 0
4.4 6.8 0
4.8 6.8 0
5.2 6.8 0
5.6 6.8 0
6 6.8 0
6.4 6.8 0
6.8 6.8 0
7.2 6.8 0
7.6 6.8 0
8 6.8 0
8.4 6.8 0
8.8 6.8 0
9.2 6.8 0
9.6 6.8 0
10 6.8 0
10.4 6.8 0
10.8 6.8 0
11.2 6.8 0
11.6 6.8 0
12 6.8 0
12.4 6.8 0
12.8 6.8 0
13.2 6.8 0
13.6 6.8 0
14 6.8 0
14.4 6.8 0
14.8 6.8 0
15.2 6.8 0
15.6 6.8 0
16 6.8 0
16.4 6.8 0
16.8 6.8 0
17.2 6.8 0
17.6 6.8 0
18 6.8 0
18.4 6.8 0
18.8 6.8 0
19.2 6.8 0
19.6 6.8 0
20 6.8 0
0 7.2 0
0.4 7.2 0
0.8 7.2 0
1.2 7.2 0
1.6 7.2 0
2 7.2 0
2.4 7.2 0
2.8 7.2 0
3.2 7.2 0
3.6 7.2 0
4 7.2 0
4.4 7.2 0
4.8 7.2 0
5.2 7.2 0
5.6 7.2 0
6 7.2 0
6.4 7.2 0
6.8 7.2 0
7.2 7.2 0
7.6 7.2 0
8 7.2 0
8.4 7.2 0
8.8 7.2 0
9.2 7.2 0
9.6 7.2 0
10 7.2 0
10.4 7.2 0
10.8 7.2 0
11.2 7.2 0
11.6 7.2 0
12 7.2 0
12.4 7.2 0
12.8 7.2 0
13.2 7.2 0
13.6 7.2 0
14 7.2 0
14.4 7.2 0
14.8 7.2 0
15.2 7.2 0
15.6 7.2 0
16 7.2 0
16.4 7.2 0
16.8 7.2 0
17.2 7.2 0
17.6 7.2 0
18 7.2 0
18.4 7.2 0
18.8 7.2 0
19.2 7.2 0
19.6 7.2 0
20 7.2 0
0 7.6 0
0.4 7.6 0
0.8 7.6 0
1.2 7.6 0
1.6 7.6 0
2 7.6 0
2.4 7.6 0
2.8 7.6 0
3.2 7.6 0
3.6 7.6 0
4 7.6 0
4.4 7.6 0
4.8 7.6 0
5.2 7.6 0
5.6 7.6 0
6 7.6 0
6.4 7.6 0
6.8 7.6 0
7.2 7.6 0
7.6 7.6 0
8 7.6 0
8.4 7.6 0
8.8 7.6 0
9.2 7.6 0
9.6 7.6 0
10 7.6 0
10.4 7.6 0
10.8 7.6 0
11.2 7.6 0
11.6 7.6 0
12 7.6 0
12.4 7.6 0
12.8 7.6 0
13.2 7.6 0
13.6 7.6 0
14 7.6 0
14.4 7.6 0
14.8 7.6 0
15.2 7.6 0
15.6 7.6 0
16 7.6 0
16.4 7.6 0
16.8 7.6 0
17.2 7.6 0
17.6 7.6 0
18 7.6 0
18.4 7.6 0
18.8 7.6 0
19.2 7.6 0
19.6 7.6 0
20 7.6 0
0 8 0
0.4 8 0
0.8 8 0
1.2 8 0
1.6 8 0
2 8 0
2.4 8 0
2.8 8 0
3.2 8 0
3.6 8 0
4 8 0
4.4 8 0
4.8 8 0
5.2 8 0
5.6 8 0
6 8 0
6.4 8 0
6.8 8 0
7.2 8 0
7.6 8 0
8 8 0
8.4 8 0
8.8 8 0
9.2 8 0
9.6 8 0
10 8 0
10.4 8 0
10.8 8 0
11.2 8 0
11.6 8 0
12 8 0
12.4 8 0
12.8 8 0
13.2 8 0
13.6 8 0
14 8 0
14.4 8 0
14.8 8 0
15.2 8 0
15.6 8 0
16 8 0
16.4 8 0
16.8 8 0
17.2 8 0
17.6 8 0
18 8 0
18.4 8 0
18.8 8 0
19.2 8 0
19.6 8 0
20 8 0
0 8.4 0
0.4 8.4 0
0.8 8.4 0
1.2 8.4 0
1.6 8.4 0
2 8.4 0
2.4 8.4 0
2.8 8.4 0
3.2 8.4 0
3.6 8.4 0
4 8.4 0
4.4 8.4 0
4.8 8.4 0
5.2 8.4 0
5.6 8.4 0
6 8.4 0
6.4 8.4 0
6.8 8.4 0
7.2 8.4 0
7.6 8.4 0
8 8.4 0
8.4 8.4 0
8.8 8.4 0
9.2 8.4 0
9.6 8.4 0
10 8.4 0
10.4 8.4 0
10.8 8.4 0
11.2 8.4 0
11.6 8.4 0
12 8.4 0
12.4 8.4 0
12.8 8.4 0
13.2 8.4 0
13.6 8.4 0
14 8.4 0
14.4 8.4 0
14.8 8.4 0
15.2 8.4 0
15.6 8.4 0
16 8.4 0
16.4 8.4 0
16.8 8.4 0
17.2 8.4 0
17.6 8.4 0
18 8.4 0
18.4 8.4 0
18.8 8.4 0
19.2 8.4 0
19.6 8.4 0
20 8.4 0
0 8.8 0
0.4 8.8 0
0.8 8.8 0
1.2 8.8 0
1.6 8.8 0
2 8.8 0
2.4 8.8 0
2.8 8.8 0
3.2 8.8 0
3.6 8.8 0
4 8.8 0
4.4 8.8 0
4.8 8.8 0
5.2 8.8 0
5.6 8.8 0
6 8.8 0
6.4 8.8 0
6.8 8.8 0
7.2 8.8 0
7.6 8.8 0
8 8.8 0
8.4 8.8 0
8.8 8.8 0
9.2 8.8 0
9.6 8.8 0
10 8.8 0
10.4 8.8 0
10.8 8.8 0
11.2 8.8 0
11.6 8.8 0
12 8.8 0
12.4 8.8 0
12.8 8.8 0
13.2 8.8 0
13.6 8.8 0
14 8.8 0
14.4 8.8 0
14.8 8.8 0
15.2 8.8 0
15.6 8.8 0
16 8.8 0
16.4 8.8 0
16.8 8.8 0
17.2 8.8 0
17.6 8.8 0
18 8.8 0
18.4 8.8 0
18.8 8.8 0
19.2 8.8 0
19.6 8.8 0
20 8.8 0
0 9.2 0
0.4 9.2 0
0.8 9.2 0
1.2 9.2 0
1.6 9.2 0
2 9.2 0
2.4 9.2 0
2.8 9.2 0
3.2 9.2 0
3.6 9.2 0
4 9.2 0
4.4 9.2 0
4.8 9.2 0
5.2 9.2 0
5.6 9.2 0
6 9.2 0
6.4 9.2 0
6.8 9.2 0
7.2 9.2 0
7.6 9.2 0
8 9.2 0
8.4 9.2 0
8.8 9.2 0
9.2 9.2 0
9.6 9.2 0
10 9.2 0
10.4 9.2 0
10.8 9.2 0
11.2 9.2 0
11.6 9.2 0
12 9.2 0
12.4 9.2 0
12.8 9.2 0
13.2 9.2 0
13.6 9.2 0
14 9.2 0
14.4 9.2 0
14.8 9.2 0
15.2 9.2 0
15.6 9.2 0
16 9.2 0
16.4 9.2 0
16.8 9.2 0
17.2 9.2 0
17.6 9.2 0
18 9.2 0
18.4 9.2 0
18.8 9.2 0
19.2 9.2 0
19.6 9.2 0
20 9.2 0
0 9.6 0
0.4 9.6 0
0.8 9.6 0
1.2 9.6 0
1.6 9.6 0
2 9.6 0
2.4 9.6 0
2.8 9.6 0
3.2 9.6 0
3.6 9.6 0
4 9.6 0
4.4 9.6 0
4.8 9.6 0
5.2 9.6 0
5.6 9.6 0
6 9.6 0
6.4 9.6 0
6.8 9.6 0
7.2 9.6 0
7.6 9.6 0
8 9.6 0
8.4 9.6 0
8.8 9.6 0
9.2 9.6 0
9.6 9.6 0
10 9.6 0
10.4 9.6 0
10.8 9.6 0
11.2 9.6 0
11.6 9.6 0
12 9.6 0
12.4 9.6 0
12.8 9.6 0
13.2 9.6 0
13.6 9.6 0
14 9.6 0
14.4 9.6 0
14.8 9.6 0
15.2 9.6 0
15.6 9.6 0
16 9.6 0
16.4 9.6 0
16.8 9.6 0
17.2 9.6 0
17.6 9.6 0
18 9.6 0
18.4 9.6 0
18.8 9.6 0
19.2 9.6 0
19.6 9.6 0
20 9.6 0
0 10 0
0.4 10 0
0.8 10 0
1.2 10 0
1.6 10 0
2 10 0
2.4 10 0
2.8 10 0
3.2 10 0
3.6 10 0
4 10 0
4.4 10 0
4.8 10 0
5.2 10 0
5.6 10 0
6 10 0
6.4 10 0
6.8 10 0
7.2 10 0
7.6 10 0
8 10 0
8.4 10 0
8.8 10 0
9.2 10 0
9.6 10 0
10 10 0
10.4 10 0
10.8 10 0
11.2 10 0
11.6 10 0
12 10 0
12.4 10 0
12.8 10 0
13.2 10 0
13.6 10 0
14 10 0
14.4 10 0
14.8 10 0
15.2 10 0
15.6 10 0
16 10 0
16.4 10 0
16.8 10 0
17.2 10 0
17.6 10 0
18 10 0
18.4 10 0
18.8 10 0
19.2 10 0
19.6 10 0
20 10 0

CELL_DATA 1250
SCALARS phi float
LOOKUP_TABLE default 
4.711
4.711
4.711
4.711
4.711
4.711
4.711
4.711
4.711
4.711
4.711
4.711
4.711
4.711
4.711
4.711
4.711
4.711
4.711
4.711
4.711
4.711
4.711
4.711
4.711
4.711
4.711
4.711
4.711
4.711
4.711
4.711
4.711
4.711
4.711
4.711
4.711
4.711
4.711
4.711
4.711
4.711
4.711
4.711
4.711
4.711
4.711
4.711
4.711
4.711
4.711
4.711
4.711
4.711
4.711
4.711
4.711
4.711
4.711
4.711
4.711
4.711
4.711
4.711
4.711
4.711
4.711
4.711
4.711
4.711
4.711
4.711
4.711
4.711
4.711
4.711
4.711
4.711
4.711
4.711
4.711
4.711
4.711
4.711
4.711
4.711
4.711
4.711
4.711
4.711
4.711
4.711
4.711
4.711
4.711
4.711
4.711
4.711
4.711
4.711
4.711
4.711
4.711
4.711
4.711
4.711
4.711
4.711
4.711
4.711
4.711
4.711
4.711
4.711
4.711
4.711
4.711
4.711
4.711
4.711
4.711
4.711
4.711
4.711
4.711
4.711
4.711
4.711
4.711
4.711
4.711
4.711
4.711
4.711
4.711
4.711
4.711
4.711
4.711
4.711
4.711
4.711
4.711
4.711
4.711
4.711
4.711
4.711
4.711
4.711
4.711
4.711
4.711
4.711
4.711
4.711
4.711
4.711
4.711
4.711
4.711
4.711
4.711
4.711
4.711
4.711
4.711
4.711
4.711
4.711
4.711
4.711
4.711
4.711
4.711
4.711
4.711
4.711
4.711
4.711
4.711
4.711
4.711
4.711
4.711
4.711
4.711
4.711
4.711
4.711
4.711
4.711
4.711
4.711
4.711
4.711
4.711
4.711
4.711
4.711
4.711
4.711
4.711
4.711
4.711
4.711
4.711
4.711
4.711
4.711
4.711
4.711
4.711
4.711
4.711
4.711
4.711
4.711
4.711
4.711
4.711
4.711
4.711
4.711
4.711
4.711
4.711
4.711
4.711
4.711
4.711
4.711
4.711
4.711
4.711
4.711
4.711
4.711
4.711
4.711
4.711
4.711
4.711
4.711
4.711
4.711
4.711
4.711
4.711
4.711
4.711
4.711
4.711
4.711
4.711
4.711
4.711
4.711
4.711
4.711
4.711
4.711
4.711
4.711
4.711
4.711
4.711
4.711
4.711
4.711
4.711
4.711
4.711
4.711
4.711
4.711
4.711
4.711
4.711
4.711
4.711
4.711
4.711
4.711
4.711
4.711
4.711
4.711
4.711
4.711
4.711
4.711
4.711
4.711
4.711
4.711
4.711
4.711
4.711
4.711
4.711
4.711
4.711
4.711
4.711
4.711
4.711
4.711
4.711
4.711
4.711
4.711
4.711
4.711
4.711
4.711
4.711
4.711
4.711
4.711
4.711
4.711
4.711
4.711
4.711
4.711
4.711
4.711
4.711
4.711
4.711
4.711
4.711
4.711
4.711
4.711
4.711
4.711
4.711
4.711
4.711
4.711
4.711
4.711
4.711
4.711
4.711
4.711
4.711
4.711
4.711
4.711
4.711
4.711
4.711
4.711
4.711
4.711
4.711
4.711
4.711
4.711
4.711
4.711
4.711
4.711
4.711
4.711
4.711
4.711
4.711
4.711
4.711
4.711
4.711
4.711
4.711
4.711
4.711
4.711
4.711
4.711
4.711
4.711
4.711
4.711
4.711
4.711
4.711
4.711
4.711
4.711
4.711
4.711
4.711
4.711
4.711
4.711
4.711
4.711
4.711
4.711
4.711
4.711
4.711
4.711
4.711
4.711
4.711
4.711
4.711
4.711
4.711
4.711
4.711
4.711
4.711
4.711
4.711
4.711
4.711
4.711
4.711
4.711
4.711
4.711
4.711
4.711
4.711
4.711
4.711
4.711
4.711
4.711
4.711
4.711
4.711
4.711
4.711
4.711
4.711
4.711
4.711
4.711
4.711
4.711
4.711
4.711
4.711
4.711
4.711
4.711
4.711
4.711
4.711
4.711
4.711
4.711
4.711
4.711
4.711
4.711
4.711
4.711
4.711
4.711
4.711
4.711
4.711
4.711
4.711
4.711
4.711
4.711
4.711
4.711
4.711
4.711
4.711
4.711
4.711
4.711
4.711
4.711
4.711
4.711
4.711
4.711
4.711
4.711
4.711
4.711
4.711
4.711
4.711
4.711
4.711
4.711
4.711
4.711
4.711
4.711
4.711
4.711
4.711
4.711
4.711
4.711
4.711
4.711
4.711
4.711
4.711
4.711
4.711
4.711
4.711
4.711
4.711
4.711
4.711
4.711
4.711
4.711
4.711
4.711
4.711
4.711
4.711
4.711
4.711
4.711
4.711
4.711
4.711
4.711
4.711
4.711
4.711
4.711
4.711
4.711
4.711
4.711
4.711
4.711
4.711
4.711
4.711
4.711
4.711
4.711
4.711
4.711
4.711
4.711
4.711
4.711
4.711
4.711
4.711
4.711
4.711
4.711
4.711
4.711
4.711
4.711
4.711
4.711
4.711
4.711
4.711
4.711
4.711
4.711
4.711
4.711
4.711
4.711
4.711
4.711
4.711
4.711
4.711
4.711
4.711
4.711
4.711
4.711
4.711
4.711
4.711
4.711
4.711
4.711
4.711
4.711
4.711
4.711
4.711
4.711
4.711
4.711
4.711
4.711
4.711
4.711
4.711
4.711
4.711
4.711
4.711
4.711
4.711
4.711
4.711
4.711
4.711
4.711
4.711
4.711
4.711
4.711
4.711
4.711
4.711
4.711
4.711
4.711
4.711
4.711
4.711
4.711
4.711
4.711
4.711
4.711
4.711
4.711
4.711
4.711
4.711
4.711
4.711
4.711
4.711
4.711
4.711
4.711
4.711
4.711
4.711
4.711
4.711
4.711
4.711
4.711
4.711
4.711
4.711
4.711
4.711
4.711
4.711
4.711
4.711
4.711
4.711
4.711
4.711
4.711
4.711
4.711
4.711
4.711
4.711
4.711
4.711
4.711
4.711
4.711
4.711
4.711
4.711
4.711
4.711
4.711
4.711
4.711
4.711
4.711
4.711
4.711
4.711
4.711
4.711
4.711
4.711
4.711
4.711
4.711
4.711
4.711
4.711
4.711
4.711
4.711
4.711
4.711
4.711
4.711
4.711
4.711
4.711
4.711
4.711
4.711
4.711
4.711
4.711
4.711
4.711
4.711
4.711
4.711
4.711
4.711
4.711
4.711
4.711
4.711
4.711
4.711
4.711
4.711
4.711
4.711
4.711
4.711
4.711
4.711
4.711
4.711
4.711
4.711
4.711
4.711
4.711
4.711
4.711
4.711
4.711
4.711
4.711
4.711
4.711
4.711
4.711
4.711
4.711
4.711
4.711
4.711
4.711
4.711
4.711
4.711
4.711
4.711
4.711
4.711
4.711
4.711
4.711
4.711
4.711
4.711
4.711
4.711
4.711
4.711
4.711
4.711
4.711
4.711
4.711
4.711
4.711
4.711
4.711
4.711
4.711
4.711
4.711
4.711
4.711
4.711
4.711
4.711
4.711
4.711
4.711
4.711
4.711
4.711
4.711
4.711
4.711
4.711
4.711
4.711
4.711
4.711
4.711
4.711
4.711
4.711
4.711
4.711
4.711
4.711
4.711
4.711
4.711
4.711
4.711
4.711
4.711
4.711
4.711
4.711
4.711
4.711
4.711
4.711
4.711
4.711
4.711
4.711
4.711
4.711
4.711
4.711
4.711
4.711
4.711
4.711
4.711
4.711
4.711
4.711
4.711
4.711
4.711
4.711
4.711
4.711
4.711
4.711
4.711
4.711
4.711
4.711
4.711
4.711
4.711
4.711
4.711
4.711
4.711
4.711
4.711
4.711
4.711
4.711
4.711
4.711
4.711
4.711
4.711
4.711
4.711
4.711
4.711
4.711
4.711
4.711
4.711
4.711
4.711
4.711
4.711
4.711
4.711
4.711
4.711
4.711
4.711
4.711
4.711
4.711
4.711
4.711
4.711
4.711
4.711
4.711
4.711
4.711
4.711
4.711
4.711
4.711
4.711
4.711
4.711
4.711
4.711
4.711
4.711
4.711
4.711
4.711
4.711
4.711
4.711
4.711
4.711
4.711
4.711
4.711
4.711
4.711
4.711
4.711
4.711
4.711
4.711
4.711
4.711
4.711
4.711
4.711
4.711
4.711
4.711
4.711
4.711
4.711
4.711
4.711
4.711
4.711
4.711
4.711
4.711
4.711
4.711
4.711
4.711
4.711
4.711
4.711
4.711
4.711
4.711
4.711
4.711
4.711
4.711
4.711
4.711
4.711
4.711
4.711
4.711
4.711
4.711
4.711
4.711
4.711
4.711
4.711
4.711
4.711
4.711
4.711
4.711
4.711
4.711
4.711
4.711
4.711
4.711
4.711
4.711
4.711
4.711
4.711
4.711
4.711
4.711
4.711
4.711
4.711
4.711
4.711
4.711
4.711
4.711
4.711
4.711
4.711
4.711
4.711
4.711
4.711
4.711
4.711
4.711
4.711
4.711
4.711
4.711
4.711
4.711
4.711
4.711
4.711
4.711
4.711
4.711
4.711
4.711
4.711
4.711
4.711
4.711
4.711
4.711
4.711
4.711
4.711
4.711
4.711
4.711
4.711
4.711
4.711
4.711
4.711
4.711
4.711
4.711
4.711
4.711
4.711
4.711
4.711
4.711
4.711
4.711
4.711
4.711
4.711
4.711
4.711
4.711
4.711
4.711
4.711
4.711
4.711
4.711
4.711
4.711
4.711
4.711
4.711
4.711
4.711
4.711
4.711
4.711
4.711
4.711
4.711
4.711
4.711
4.711
4.711
4.711
4.711
4.711
4.711
4.711
4.711
4.711
4.711
4.711
4.711
4.711
4.711
4.711
4.711
4.711
4.711
4.711
4.711
4.711
4.711
4.711
4.711
4.711
4.711
4.711
4.711
4.711
4.711
4.711
4.711
4.711
4.711
4.711
4.711
4.711
4.711
4.711
4.711
4.711
4.711
4.711
4.711
4.711
4.711
4.711
4.711
4.711
4.711
4.711
4.711
4.711
4.711
4.711
4.711
4.711
4.711
4.711
4.711
4.711
4.711
4.711
4.711
4.711
4.711
4.711
4.711
4.711
4.711
4.711
4.711
4.711
4.711
4.711
4.711
4.711
4.711
4.711
4.711
4.711
4.711
4.711
4.711
4.711
4.711
4.711
4.711
4.711
4.711
4.711
4.711
4.711
4.711
4.711
4.711
4.711
4.711
4.711
4.711
4.711
4.711
4.711
4.711
4.711
4.711
4.711
4.711
4.711
4.711
4.711
4.711
4.711
4.711
4.711
4.711
4.711
4.711
4.711
4.711
4.711
4.711
4.711
4.711
4.711
4.711
4.711
4.711
4.711
4.711
4.711
4.711
4.711
4.711
4.711
4.711
4.711
4.711
4.711
4.711
4.711
4.711
4.711
4.711
4.711
4.711
4.711
4.711
4.711
4.711
4.711
4.711
4.711
4.711
4.711
4.711
4.711
4.711
4.711
4.711

SCALARS p float
LOOKUP_TABLE default 
-5.67337
-5.67338
-7.51323
-9.1599
-10.5643
-11.6221
-12.236
-12.3547
-11.9934
-11.2312
-10.1926
-9.01708
-7.82796
-6.70795
-5.68731
-4.7465
-3.83001
-2.86529
-1.78089
-0.519848
0.952739
2.6467
4.5467
6.61354
8.78655
10.9877
13.1288
15.1211
16.8865
18.3669
19.5294
20.3663
20.8914
21.1333
21.129
20.9183
20.5394
20.0268
19.4097
18.7124
17.9541
17.15
16.3116
15.4476
14.5648
13.6678
12.7605
11.8454
10.9245
10
-5.67338
-5.67338
-7.51323
-9.1599
-10.5643
-11.6221
-12.236
-12.3547
-11.9934
-11.2312
-10.1926
-9.01708
-7.82796
-6.70795
-5.68731
-4.7465
-3.83001
-2.86529
-1.78089
-0.519848
0.952739
2.6467
4.5467
6.61354
8.78655
10.9877
13.1288
15.1211
16.8865
18.3669
19.5294
20.3663
20.8914
21.1333
21.129
20.9183
20.5394
20.0268
19.4097
18.7124
17.9541
17.15
16.3116
15.4476
14.5648
13.6678
12.7605
11.8454
10.9245
10
-5.99998
-5.99998
-7.31339
-8.76548
-10.1368
-11.2832
-12.0894
-12.4789
-12.4296
-11.9767
-11.2039
-10.2225
-9.14149
-8.04196
-6.9623
-5.89802
-4.81206
-3.65067
-2.35919
-0.894234
0.768836
2.63264
4.67715
6.86043
9.12052
11.3794
13.5498
15.5455
17.2922
18.7371
19.8532
20.6387
21.1126
21.3072
21.2617
21.0169
20.6108
20.0773
19.4446
18.7359
17.9695
17.1598
16.3176
15.4511
14.5665
13.6686
12.7607
11.8454
10.9244
10
-5.44595
-5.44595
-6.3998
-7.68675
-9.10827
-10.5214
-11.7755
-12.7319
-13.2898
-13.4008
-13.0845
-12.4213
-11.5131
-10.4464
-9.27122
-8.00033
-6.61869
-5.09837
-3.4124
-1.54461
0.505098
2.71913
5.06235
7.48293
9.91382
12.2763
14.4868
16.4665
18.1522
19.5043
20.5097
21.1797
21.5429
21.6387
21.5097
21.1972
20.7386
20.1654
19.5037
18.7743
17.9936
17.174
16.3253
15.4546
14.5674
13.668
12.7593
11.8439
10.9234
10
-3.60557
-3.60557
-4.38439
-5.63902
-7.30666
-9.31586
-11.4334
-13.3928
-14.9516
-15.9148
-16.2132
-15.9255
-15.1843
-14.1025
-12.7473
-11.146
-9.30385
-7.22359
-4.91788
-2.41477
0.242998
3.00147
5.79874
8.56695
11.2335
13.7233
15.9636
17.8918
19.4644
20.6628
21.4947
21.9889
22.1875
22.1381
21.8869
21.4757
20.9397
20.3076
19.6022
18.841
18.0375
17.202
16.3422
15.4641
14.572
13.6695
12.7591
11.8429
10.9226
10
-0.23041
-0.23041
-0.903735
-2.19563
-4.32277
-7.4599
-11.1003
-14.7285
-17.8737
-20.0532
-21.069
-21.1142
-20.45
-19.2528
-17.6038
-15.5284
-13.0402
-10.1725
-6.991
-3.58927
-0.075745
3.44019
6.85764
10.0879
13.0545
15.692
17.9475
19.7854
21.1917
22.178
22.7788
23.0445
23.0325
22.7989
22.3934
21.8569
21.222
20.5135
19.75
18.9455
18.1102
17.2516
16.3752
15.4854
14.5852
13.6771
12.763
11.8446
10.9231
10
4.816
4.816
4.36394
3.24327
0.628128
-4.5881
-10.7936
-17.0861
-22.7391
-26.5909
-28.2132
-28.3275
-27.5264
-26.073
-24.0193
-21.3383
-18.0201
-14.1249
-9.79041
-5.20668
-0.577642
3.91086
8.10896
11.9067
15.2293
18.0306
20.2888
22.0053
23.2055
23.9378
24.2679
24.2701
24.0176
23.5746
22.9935
22.3142
21.5657
20.7685
19.937
19.081
18.2071
17.3199
16.4227
15.5177
14.6066
13.6908
12.7713
11.8491
10.9251
10
11.3882
11.3882
11.5697
11.5183
9.27217
-0.284515
-10.5623
-20.7474
-30.422
-36.4774
-37.8954
-37.3852
-36.1106
-34.2967
-31.8212
-28.4965
-24.23
-19.102
-13.355
-7.32254
-1.34442
4.29447
9.39058
13.8202
17.524
20.4887
22.7355
24.3122
25.2893
25.7549
25.8064
25.5405
25.0441
24.3886
23.6285
22.8023
21.936
21.0461
20.1429
19.232
18.3167
17.3986
16.4784
15.5565
14.6332
13.7085
12.7826
11.8557
10.928
10
18.729
18.729
20.2307
23.3919
26.0742
4.57031
-10.5777
-24.5148
-40.437
-49.5655
-48.3627
-46.2423
-44.344
-42.3364
-39.6964
-35.9491
-30.8456
-24.4759
-17.2276
-9.6344
-2.21558
4.6252
10.6316
15.6789
19.7379
22.8416
25.0616
26.4951
27.2568
27.4711
27.263
26.7481
26.0249
25.1708
24.2422
23.2767
22.298
21.3191
20.3465
19.3824
18.4267
17.4782
16.5354
15.5968
14.6612
13.7274
12.7949
11.863
10.9314
10
25.1708
25.1708
28.1394
36.5214
26.0742
4.57031
-10.5777
-24.5148
-40.437
-61.8172
-54.7125
-51.2896
-49.3061
-47.5283
-45.1243
-41.3721
-35.8312
-28.5604
-20.0878
-11.1655
-2.50963
5.35016
12.106
17.636
21.9451
25.1124
27.2579
28.5239
29.0639
29.0336
28.5805
27.8353
26.905
25.8713
24.7911
23.701
22.6219
21.5636
20.5293
19.5177
18.526
17.5504
16.5874
15.6339
14.6871
13.7452
12.8065
11.87
10.9347
10
28.7633
28.7633
30.96
36.5214
36.5214
0
0
0
-61.8172
-61.8172
-54.6376
-52.1214
-50.7915
-49.3627
-47.1247
-43.3693
-37.5933
-29.8197
-20.6351
-10.9181
-1.51528
6.95023
14.1248
19.8824
24.2507
27.3446
29.3235
30.3667
30.6592
30.3804
29.6938
28.7391
27.6273
26.4403
25.2336
24.0411
22.8804
21.7583
20.6745
19.6253
18.605
17.608
16.629
15.6636
14.708
13.7596
12.816
11.8757
10.9374
10
29.9143
29.9143
30.4125
30.4125
0
0
0
0
0
-51.6625
-51.6625
-51.2944
-50.5728
-49.2221
-46.7949
-42.7215
-36.6094
-28.5435
-19.1165
-9.18769
0.404005
9.016
16.2632
22.002
26.2649
29.1869
30.9525
31.7658
31.8316
31.343
30.4711
29.3579
28.114
26.819
25.5252
24.2634
23.0485
21.8843
20.7683
19.6946
18.6559
17.6451
16.6558
15.6828
14.7216
13.7689
12.8222
11.8795
10.9392
10
30.1882
30.1882
30.3387
30.3387
0
0
0
0
0
-50.5076
-50.5076
-50.5944
-50.0902
-48.7507
-46.1944
-41.9343
-35.6524
-27.4749
-18.0061
-8.09691
1.44912
10.0237
17.2364
22.9226
27.1083
29.9345
31.5958
32.3051
32.2742
31.6999
30.7548
29.581
28.2876
26.9528
25.6275
24.3411
23.107
21.928
20.8008
19.7186
18.6735
17.6579
16.6651
15.6894
14.7263
13.7722
12.8244
11.8808
10.9398
10
29.9143
29.9143
30.4125
30.4125
0
0
0
0
0
-51.6625
-51.6625
-51.2944
-50.5728
-49.2221
-46.7949
-42.7215
-36.6094
-28.5435
-19.1165
-9.18769
0.404005
9.016
16.2632
22.002
26.2649
29.1869
30.9525
31.7658
31.8316
31.343
30.4711
29.3579
28.114
26.819
25.5252
24.2634
23.0485
21.8843
20.7683
19.6946
18.6559
17.6451
16.6558
15.6828
14.7216
13.7689
12.8222
11.8795
10.9392
10
28.7633
28.7633
30.96
36.5214
36.5214
0
0
0
-61.8172
-61.8172
-54.6376
-52.1214
-50.7915
-49.3627
-47.1247
-43.3693
-37.5933
-29.8197
-20.6351
-10.9181
-1.51528
6.95023
14.1248
19.8824
24.2507
27.3446
29.3235
30.3667
30.6592
30.3804
29.6938
28.7391
27.6273
26.4403
25.2336
24.0411
22.8804
21.7583
20.6745
19.6253
18.605
17.608
16.629
15.6636
14.708
13.7596
12.816
11.8757
10.9374
10
25.1708
25.1708
28.1394
36.5214
26.0742
4.57031
-10.5777
-24.5148
-40.437
-61.8172
-54.7125
-51.2896
-49.3061
-47.5283
-45.1243
-41.3721
-35.8312
-28.5604
-20.0878
-11.1655
-2.50963
5.35016
12.106
17.636
21.9451
25.1124
27.2579
28.5239
29.0639
29.0336
28.5805
27.8353
26.905
25.8713
24.7911
23.701
22.6219
21.5636
20.5293
19.5177
18.526
17.5504
16.5874
15.6339
14.6871
13.7452
12.8065
11.87
10.9347
10
18.729
18.729
20.2307
23.3919
26.0742
4.57031
-10.5777
-24.5148
-40.437
-49.5655
-48.3627
-46.2423
-44.344
-42.3364
-39.6964
-35.9491
-30.8456
-24.4759
-17.2276
-9.6344
-2.21558
4.6252
10.6316
15.6789
19.7379
22.8416
25.0616
26.4951
27.2568
27.4711
27.263
26.7481
26.0249
25.1708
24.2422
23.2767
22.298
21.3191
20.3465
19.3824
18.4267
17.4782
16.5354
15.5968
14.6612
13.7274
12.7949
11.863
10.9314
10
11.3882
11.3882
11.5697
11.5183
9.27217
-0.284515
-10.5623
-20.7474
-30.422
-36.4774
-37.8954
-37.3852
-36.1106
-34.2967
-31.8212
-28.4965
-24.23
-19.102
-13.355
-7.32254
-1.34442
4.29447
9.39058
13.8202
17.524
20.4887
22.7355
24.3122
25.2893
25.7549
25.8064
25.5405
25.0441
24.3886
23.6285
22.8023
21.936
21.0461
20.1429
19.232
18.3167
17.3986
16.4784
15.5565
14.6332
13.7085
12.7826
11.8557
10.928
10
4.816
4.816
4.36394
3.24327
0.628128
-4.5881
-10.7936
-17.0861
-22.7391
-26.5909
-28.2132
-28.3275
-27.5264
-26.073
-24.0193
-21.3383
-18.0201
-14.1249
-9.79041
-5.20668
-0.577642
3.91086
8.10896
11.9067
15.2293
18.0306
20.2888
22.0053
23.2055
23.9378
24.2679
24.2701
24.0176
23.5746
22.9935
22.3142
21.5657
20.7685
19.937
19.081
18.2071
17.3199
16.4227
15.5177
14.6066
13.6908
12.7713
11.8491
10.9251
10
-0.23041
-0.23041
-0.903735
-2.19563
-4.32277
-7.4599
-11.1003
-14.7285
-17.8737
-20.0532
-21.069
-21.1142
-20.45
-19.2528
-17.6038
-15.5284
-13.0402
-10.1725
-6.991
-3.58927
-0.075745
3.44019
6.85764
10.0879
13.0545
15.692
17.9475
19.7854
21.1917
22.178
22.7788
23.0445
23.0325
22.7989
22.3934
21.8569
21.222
20.5135
19.75
18.9455
18.1102
17.2516
16.3752
15.4854
14.5852
13.6771
12.763
11.8446
10.9231
10
-3.60557
-3.60557
-4.38439
-5.63902
-7.30666
-9.31586
-11.4334
-13.3928
-14.9516
-15.9148
-16.2132
-15.9255
-15.1843
-14.1025
-12.7473
-11.146
-9.30385
-7.22359
-4.91788
-2.41477
0.242998
3.00147
5.79874
8.56695
11.2335
13.7233
15.9636
17.8918
19.4644
20.6628
21.4947
21.9889
22.1875
22.1381
21.8869
21.4757
20.9397
20.3076
19.6022
18.841
18.0375
17.202
16.3422
15.4641
14.572
13.6695
12.7591
11.8429
10.9226
10
-5.44595
-5.44595
-6.3998
-7.68675
-9.10827
-10.5214
-11.7755
-12.7319
-13.2898
-13.4008
-13.0845
-12.4213
-11.5131
-10.4464
-9.27122
-8.00033
-6.61869
-5.09837
-3.4124
-1.54461
0.505098
2.71913
5.06235
7.48293
9.91382
12.2763
14.4868
16.4665
18.1522
19.5043
20.5097
21.1797
21.5429
21.6387
21.5097
21.1972
20.7386
20.1654
19.5037
18.7743
17.9936
17.174
16.3253
15.4546
14.5674
13.668
12.7593
11.8439
10.9234
10
-5.99998
-5.99998
-7.31339
-8.76548
-10.1368
-11.2832
-12.0894
-12.4789
-12.4296
-11.9767
-11.2039
-10.2225
-9.14149
-8.04196
-6.9623
-5.89802
-4.81206
-3.65067
-2.35919
-0.894234
0.768836
2.63264
4.67715
6.86043
9.12052
11.3794
13.5498
15.5455
17.2922
18.7371
19.8532
20.6387
21.1126
21.3072
21.2617
21.0169
20.6108
20.0773
19.4446
18.7359
17.9695
17.1598
16.3176
15.4511
14.5665
13.6686
12.7607
11.8454
10.9244
10
-5.67338
-5.67338
-7.51323
-9.1599
-10.5643
-11.6221
-12.236
-12.3547
-11.9934
-11.2312
-10.1926
-9.01708
-7.82796
-6.70795
-5.68731
-4.7465
-3.83001
-2.86529
-1.78089
-0.519848
0.952739
2.6467
4.5467
6.61354
8.78655
10.9877
13.1288
15.1211
16.8865
18.3669
19.5294
20.3663
20.8914