# vtk DataFile Version 3.0
vtk output298
ASCII
DATASET STRUCTURED_GRID
DIMENSIONS 51 26 1
POINTS 1326 float
0 0 0
0.4 0 0
0.8 0 0
1.2 0 0
1.6 0 0
2 0 0
2.4 0 0
2.8 0 0
3.2 0 0
3.6 0 0
4 0 0
4.4 0 0
4.8 0 0
5.2 0 0
5.6 0 0
6 0 0
6.4 0 0
6.8 0 0
7.2 0 0
7.6 0 0
8 0 0
8.4 0 0
8.8 0 0
9.2 0 0
9.6 0 0
10 0 0
10.4 0 0
10.8 0 0
11.2 0 0
11.6 0 0
12 0 0
12.4 0 0
12.8 0 0
13.2 0 0
13.6 0 0
14 0 0
14.4 0 0
14.8 0 0
15.2 0 0
15.6 0 0
16 0 0
16.4 0 0
16.8 0 0
17.2 0 0
17.6 0 0
18 0 0
18.4 0 0
18.8 0 0
19.2 0 0
19.6 0 0
20 0 0
0 0.4 0
0.4 0.4 0
0.8 0.4 0
1.2 0.4 0
1.6 0.4 0
2 0.4 0
2.4 0.4 0
2.8 0.4 0
3.2 0.4 0
3.6 0.4 0
4 0.4 0
4.4 0.4 0
4.8 0.4 0
5.2 0.4 0
5.6 0.4 0
6 0.4 0
6.4 0.4 0
6.8 0.4 0
7.2 0.4 0
7.6 0.4 0
8 0.4 0
8.4 0.4 0
8.8 0.4 0
9.2 0.4 0
9.6 0.4 0
10 0.4 0
10.4 0.4 0
10.8 0.4 0
11.2 0.4 0
11.6 0.4 0
12 0.4 0
12.4 0.4 0
12.8 0.4 0
13.2 0.4 0
13.6 0.4 0
14 0.4 0
14.4 0.4 0
14.8 0.4 0
15.2 0.4 0
15.6 0.4 0
16 0.4 0
16.4 0.4 0
16.8 0.4 0
17.2 0.4 0
17.6 0.4 0
18 0.4 0
18.4 0.4 0
18.8 0.4 0
19.2 0.4 0
19.6 0.4 0
20 0.4 0
0 0.8 0
0.4 0.8 0
0.8 0.8 0
1.2 0.8 0
1.6 0.8 0
2 0.8 0
2.4 0.8 0
2.8 0.8 0
3.2 0.8 0
3.6 0.8 0
4 0.8 0
4.4 0.8 0
4.8 0.8 0
5.2 0.8 0
5.6 0.8 0
6 0.8 0
6.4 0.8 0
6.8 0.8 0
7.2 0.8 0
7.6 0.8 0
8 0.8 0
8.4 0.8 0
8.8 0.8 0
9.2 0.8 0
9.6 0.8 0
10 0.8 0
10.4 0.8 0
10.8 0.8 0
11.2 0.8 0
11.6 0.8 0
12 0.8 0
12.4 0.8 0
12.8 0.8 0
13.2 0.8 0
13.6 0.8 0
14 0.8 0
14.4 0.8 0
14.8 0.8 0
15.2 0.8 0
15.6 0.8 0
16 0.8 0
16.4 0.8 0
16.8 0.8 0
17.2 0.8 0
17.6 0.8 0
18 0.8 0
18.4 0.8 0
18.8 0.8 0
19.2 0.8 0
19.6 0.8 0
20 0.8 0
0 1.2 0
0.4 1.2 0
0.8 1.2 0
1.2 1.2 0
1.6 1.2 0
2 1.2 0
2.4 1.2 0
2.8 1.2 0
3.2 1.2 0
3.6 1.2 0
4 1.2 0
4.4 1.2 0
4.8 1.2 0
5.2 1.2 0
5.6 1.2 0
6 1.2 0
6.4 1.2 0
6.8 1.2 0
7.2 1.2 0
7.6 1.2 0
8 1.2 0
8.4 1.2 0
8.8 1.2 0
9.2 1.2 0
9.6 1.2 0
10 1.2 0
10.4 1.2 0
10.8 1.2 0
11.2 1.2 0
11.6 1.2 0
12 1.2 0
12.4 1.2 0
12.8 1.2 0
13.2 1.2 0
13.6 1.2 0
14 1.2 0
14.4 1.2 0
14.8 1.2 0
15.2 1.2 0
15.6 1.2 0
16 1.2 0
16.4 1.2 0
16.8 1.2 0
17.2 1.2 0
17.6 1.2 0
18 1.2 0
18.4 1.2 0
18.8 1.2 0
19.2 1.2 0
19.6 1.2 0
20 1.2 0
0 1.6 0
0.4 1.6 0
0.8 1.6 0
1.2 1.6 0
1.6 1.6 0
2 1.6 0
2.4 1.6 0
2.8 1.6 0
3.2 1.6 0
3.6 1.6 0
4 1.6 0
4.4 1.6 0
4.8 1.6 0
5.2 1.6 0
5.6 1.6 0
6 1.6 0
6.4 1.6 0
6.8 1.6 0
7.2 1.6 0
7.6 1.6 0
8 1.6 0
8.4 1.6 0
8.8 1.6 0
9.2 1.6 0
9.6 1.6 0
10 1.6 0
10.4 1.6 0
10.8 1.6 0
11.2 1.6 0
11.6 1.6 0
12 1.6 0
12.4 1.6 0
12.8 1.6 0
13.2 1.6 0
13.6 1.6 0
14 1.6 0
14.4 1.6 0
14.8 1.6 0
15.2 1.6 0
15.6 1.6 0
16 1.6 0
16.4 1.6 0
16.8 1.6 0
17.2 1.6 0
17.6 1.6 0
18 1.6 0
18.4 1.6 0
18.8 1.6 0
19.2 1.6 0
19.6 1.6 0
20 1.6 0
0 2 0
0.4 2 0
0.8 2 0
1.2 2 0
1.6 2 0
2 2 0
2.4 2 0
2.8 2 0
3.2 2 0
3.6 2 0
4 2 0
4.4 2 0
4.8 2 0
5.2 2 0
5.6 2 0
6 2 0
6.4 2 0
6.8 2 0
7.2 2 0
7.6 2 0
8 2 0
8.4 2 0
8.8 2 0
9.2 2 0
9.6 2 0
10 2 0
10.4 2 0
10.8 2 0
11.2 2 0
11.6 2 0
12 2 0
12.4 2 0
12.8 2 0
13.2 2 0
13.6 2 0
14 2 0
14.4 2 0
14.8 2 0
15.2 2 0
15.6 2 0
16 2 0
16.4 2 0
16.8 2 0
17.2 2 0
17.6 2 0
18 2 0
18.4 2 0
18.8 2 0
19.2 2 0
19.6 2 0
20 2 0
0 2.4 0
0.4 2.4 0
0.8 2.4 0
1.2 2.4 0
1.6 2.4 0
2 2.4 0
2.4 2.4 0
2.8 2.4 0
3.2 2.4 0
3.6 2.4 0
4 2.4 0
4.4 2.4 0
4.8 2.4 0
5.2 2.4 0
5.6 2.4 0
6 2.4 0
6.4 2.4 0
6.8 2.4 0
7.2 2.4 0
7.6 2.4 0
8 2.4 0
8.4 2.4 0
8.8 2.4 0
9.2 2.4 0
9.6 2.4 0
10 2.4 0
10.4 2.4 0
10.8 2.4 0
11.2 2.4 0
11.6 2.4 0
12 2.4 0
12.4 2.4 0
12.8 2.4 0
13.2 2.4 0
13.6 2.4 0
14 2.4 0
14.4 2.4 0
14.8 2.4 0
15.2 2.4 0
15.6 2.4 0
16 2.4 0
16.4 2.4 0
16.8 2.4 0
17.2 2.4 0
17.6 2.4 0
18 2.4 0
18.4 2.4 0
18.8 2.4 0
19.2 2.4 0
19.6 2.4 0
20 2.4 0
0 2.8 0
0.4 2.8 0
0.8 2.8 0
1.2 2.8 0
1.6 2.8 0
2 2.8 0
2.4 2.8 0
2.8 2.8 0
3.2 2.8 0
3.6 2.8 0
4 2.8 0
4.4 2.8 0
4.8 2.8 0
5.2 2.8 0
5.6 2.8 0
6 2.8 0
6.4 2.8 0
6.8 2.8 0
7.2 2.8 0
7.6 2.8 0
8 2.8 0
8.4 2.8 0
8.8 2.8 0
9.2 2.8 0
9.6 2.8 0
10 2.8 0
10.4 2.8 0
10.8 2.8 0
11.2 2.8 0
11.6 2.8 0
12 2.8 0
12.4 2.8 0
12.8 2.8 0
13.2 2.8 0
13.6 2.8 0
14 2.8 0
14.4 2.8 0
14.8 2.8 0
15.2 2.8 0
15.6 2.8 0
16 2.8 0
16.4 2.8 0
16.8 2.8 0
17.2 2.8 0
17.6 2.8 0
18 2.8 0
18.4 2.8 0
18.8 2.8 0
19.2 2.8 0
19.6 2.8 0
20 2.8 0
0 3.2 0
0.4 3.2 0
0.8 3.2 0
1.2 3.2 0
1.6 3.2 0
2 3.2 0
2.4 3.2 0
2.8 3.2 0
3.2 3.2 0
3.6 3.2 0
4 3.2 0
4.4 3.2 0
4.8 3.2 0
5.2 3.2 0
5.6 3.2 0
6 3.2 0
6.4 3.2 0
6.8 3.2 0
7.2 3.2 0
7.6 3.2 0
8 3.2 0
8.4 3.2 0
8.8 3.2 0
9.2 3.2 0
9.6 3.2 0
10 3.2 0
10.4 3.2 0
10.8 3.2 0
11.2 3.2 0
11.6 3.2 0
12 3.2 0
12.4 3.2 0
12.8 3.2 0
13.2 3.2 0
13.6 3.2 0
14 3.2 0
14.4 3.2 0
14.8 3.2 0
15.2 3.2 0
15.6 3.2 0
16 3.2 0
16.4 3.2 0
16.8 3.2 0
17.2 3.2 0
17.6 3.2 0
18 3.2 0
18.4 3.2 0
18.8 3.2 0
19.2 3.2 0
19.6 3.2 0
20 3.2 0
0 3.6 0
0.4 3.6 0
0.8 3.6 0
1.2 3.6 0
1.6 3.6 0
2 3.6 0
2.4 3.6 0
2.8 3.6 0
3.2 3.6 0
3.6 3.6 0
4 3.6 0
4.4 3.6 0
4.8 3.6 0
5.2 3.6 0
5.6 3.6 0
6 3.6 0
6.4 3.6 0
6.8 3.6 0
7.2 3.6 0
7.6 3.6 0
8 3.6 0
8.4 3.6 0
8.8 3.6 0
9.2 3.6 0
9.6 3.6 0
10 3.6 0
10.4 3.6 0
10.8 3.6 0
11.2 3.6 0
11.6 3.6 0
12 3.6 0
12.4 3.6 0
12.8 3.6 0
13.2 3.6 0
13.6 3.6 0
14 3.6 0
14.4 3.6 0
14.8 3.6 0
15.2 3.6 0
15.6 3.6 0
16 3.6 0
16.4 3.6 0
16.8 3.6 0
17.2 3.6 0
17.6 3.6 0
18 3.6 0
18.4 3.6 0
18.8 3.6 0
19.2 3.6 0
19.6 3.6 0
20 3.6 0
0 4 0
0.4 4 0
0.8 4 0
1.2 4 0
1.6 4 0
2 4 0
2.4 4 0
2.8 4 0
3.2 4 0
3.6 4 0
4 4 0
4.4 4 0
4.8 4 0
5.2 4 0
5.6 4 0
6 4 0
6.4 4 0
6.8 4 0
7.2 4 0
7.6 4 0
8 4 0
8.4 4 0
8.8 4 0
9.2 4 0
9.6 4 0
10 4 0
10.4 4 0
10.8 4 0
11.2 4 0
11.6 4 0
12 4 0
12.4 4 0
12.8 4 0
13.2 4 0
13.6 4 0
14 4 0
14.4 4 0
14.8 4 0
15.2 4 0
15.6 4 0
16 4 0
16.4 4 0
16.8 4 0
17.2 4 0
17.6 4 0
18 4 0
18.4 4 0
18.8 4 0
19.2 4 0
19.6 4 0
20 4 0
0 4.4 0
0.4 4.4 0
0.8 4.4 0
1.2 4.4 0
1.6 4.4 0
2 4.4 0
2.4 4.4 0
2.8 4.4 0
3.2 4.4 0
3.6 4.4 0
4 4.4 0
4.4 4.4 0
4.8 4.4 0
5.2 4.4 0
5.6 4.4 0
6 4.4 0
6.4 4.4 0
6.8 4.4 0
7.2 4.4 0
7.6 4.4 0
8 4.4 0
8.4 4.4 0
8.8 4.4 0
9.2 4.4 0
9.6 4.4 0
10 4.4 0
10.4 4.4 0
10.8 4.4 0
11.2 4.4 0
11.6 4.4 0
12 4.4 0
12.4 4.4 0
12.8 4.4 0
13.2 4.4 0
13.6 4.4 0
14 4.4 0
14.4 4.4 0
14.8 4.4 0
15.2 4.4 0
15.6 4.4 0
16 4.4 0
16.4 4.4 0
16.8 4.4 0
17.2 4.4 0
17.6 4.4 0
18 4.4 0
18.4 4.4 0
18.8 4.4 0
19.2 4.4 0
19.6 4.4 0
20 4.4 0
0 4.8 0
0.4 4.8 0
0.8 4.8 0
1.2 4.8 0
1.6 4.8 0
2 4.8 0
2.4 4.8 0
2.8 4.8 0
3.2 4.8 0
3.6 4.8 0
4 4.8 0
4.4 4.8 0
4.8 4.8 0
5.2 4.8 0
5.6 4.8 0
6 4.8 0
6.4 4.8 0
6.8 4.8 0
7.2 4.8 0
7.6 4.8 0
8 4.8 0
8.4 4.8 0
8.8 4.8 0
9.2 4.8 0
9.6 4.8 0
10 4.8 0
10.4 4.8 0
10.8 4.8 0
11.2 4.8 0
11.6 4.8 0
12 4.8 0
12.4 4.8 0
12.8 4.8 0
13.2 4.8 0
13.6 4.8 0
14 4.8 0
14.4 4.8 0
14.8 4.8 0
15.2 4.8 0
15.6 4.8 0
16 4.8 0
16.4 4.8 0
16.8 4.8 0
17.2 4.8 0
17.6 4.8 0
18 4.8 0
18.4 4.8 0
18.8 4.8 0
19.2 4.8 0
19.6 4.8 0
20 4.8 0
0 5.2 0
0.4 5.2 0
0.8 5.2 0
1.2 5.2 0
1.6 5.2 0
2 5.2 0
2.4 5.2 0
2.8 5.2 0
3.2 5.2 0
3.6 5.2 0
4 5.2 0
4.4 5.2 0
4.8 5.2 0
5.2 5.2 0
5.6 5.2 0
6 5.2 0
6.4 5.2 0
6.8 5.2 0
7.2 5.2 0
7.6 5.2 0
8 5.2 0
8.4 5.2 0
8.8 5.2 0
9.2 5.2 0
9.6 5.2 0
10 5.2 0
10.4 5.2 0
10.8 5.2 0
11.2 5.2 0
11.6 5.2 0
12 5.2 0
12.4 5.2 0
12.8 5.2 0
13.2 5.2 0
13.6 5.2 0
14 5.2 0
14.4 5.2 0
14.8 5.2 0
15.2 5.2 0
15.6 5.2 0
16 5.2 0
16.4 5.2 0
16.8 5.2 0
17.2 5.2 0
17.6 5.2 0
18 5.2 0
18.4 5.2 0
18.8 5.2 0
19.2 5.2 0
19.6 5.2 0
20 5.2 0
0 5.6 0
0.4 5.6 0
0.8 5.6 0
1.2 5.6 0
1.6 5.6 0
2 5.6 0
2.4 5.6 0
2.8 5.6 0
3.2 5.6 0
3.6 5.6 0
4 5.6 0
4.4 5.6 0
4.8 5.6 0
5.2 5.6 0
5.6 5.6 0
6 5.6 0
6.4 5.6 0
6.8 5.6 0
7.2 5.6 0
7.6 5.6 0
8 5.6 0
8.4 5.6 0
8.8 5.6 0
9.2 5.6 0
9.6 5.6 0
10 5.6 0
10.4 5.6 0
10.8 5.6 0
11.2 5.6 0
11.6 5.6 0
12 5.6 0
12.4 5.6 0
12.8 5.6 0
13.2 5.6 0
13.6 5.6 0
14 5.6 0
14.4 5.6 0
14.8 5.6 0
15.2 5.6 0
15.6 5.6 0
16 5.6 0
16.4 5.6 0
16.8 5.6 0
17.2 5.6 0
17.6 5.6 0
18 5.6 0
18.4 5.6 0
18.8 5.6 0
19.2 5.6 0
19.6 5.6 0
20 5.6 0
0 6 0
0.4 6 0
0.8 6 0
1.2 6 0
1.6 6 0
2 6 0
2.4 6 0
2.8 6 0
3.2 6 0
3.6 6 0
4 6 0
4.4 6 0
4.8 6 0
5.2 6 0
5.6 6 0
6 6 0
6.4 6 0
6.8 6 0
7.2 6 0
7.6 6 0
8 6 0
8.4 6 0
8.8 6 0
9.2 6 0
9.6 6 0
10 6 0
10.4 6 0
10.8 6 0
11.2 6 0
11.6 6 0
12 6 0
12.4 6 0
12.8 6 0
13.2 6 0
13.6 6 0
14 6 0
14.4 6 0
14.8 6 0
15.2 6 0
15.6 6 0
16 6 0
16.4 6 0
16.8 6 0
17.2 6 0
17.6 6 0
18 6 0
18.4 6 0
18.8 6 0
19.2 6 0
19.6 6 0
20 6 0
0 6.4 0
0.4 6.4 0
0.8 6.4 0
1.2 6.4 0
1.6 6.4 0
2 6.4 0
2.4 6.4 0
2.8 6.4 0
3.2 6.4 0
3.6 6.4 0
4 6.4 0
4.4 6.4 0
4.8 6.4 0
5.2 6.4 0
5.6 6.4 0
6 6.4 0
6.4 6.4 0
6.8 6.4 0
7.2 6.4 0
7.6 6.4 0
8 6.4 0
8.4 6.4 0
8.8 6.4 0
9.2 6.4 0
9.6 6.4 0
10 6.4 0
10.4 6.4 0
10.8 6.4 0
11.2 6.4 0
11.6 6.4 0
12 6.4 0
12.4 6.4 0
12.8 6.4 0
13.2 6.4 0
13.6 6.4 0
14 6.4 0
14.4 6.4 0
14.8 6.4 0
15.2 6.4 0
15.6 6.4 0
16 6.4 0
16.4 6.4 0
16.8 6.4 0
17.2 6.4 0
17.6 6.4 0
18 6.4 0
18.4 6.4 0
18.8 6.4 0
19.2 6.4 0
19.6 6.4 0
20 6.4 0
0 6.8 0
0.4 6.8 0
0.8 6.8 0
1.2 6.8 0
1.6 6.8 0
2 6.8 0
2.4 6.8 0
2.8 6.8 0
3.2 6.8 0
3.6 6.8 0
4 6.8 0
4.4 6.8 0
4.8 6.8 0
5.2 6.8 0
5.6 6.8 0
6 6.8 0
6.4 6.8 0
6.8 6.8 0
7.2 6.8 0
7.6 6.8 0
8 6.8 0
8.4 6.8 0
8.8 6.8 0
9.2 6.8 0
9.6 6.8 0
10 6.8 0
10.4 6.8 0
10.8 6.8 0
11.2 6.8 0
11.6 6.8 0
12 6.8 0
12.4 6.8 0
12.8 6.8 0
13.2 6.8 0
13.6 6.8 0
14 6.8 0
14.4 6.8 0
14.8 6.8 0
15.2 6.8 0
15.6 6.8 0
16 6.8 0
16.4 6.8 0
16.8 6.8 0
17.2 6.8 0
17.6 6.8 0
18 6.8 0
18.4 6.8 0
18.8 6.8 0
19.2 6.8 0
19.6 6.8 0
20 6.8 0
0 7.2 0
0.4 7.2 0
0.8 7.2 0
1.2 7.2 0
1.6 7.2 0
2 7.2 0
2.4 7.2 0
2.8 7.2 0
3.2 7.2 0
3.6 7.2 0
4 7.2 0
4.4 7.2 0
4.8 7.2 0
5.2 7.2 0
5.6 7.2 0
6 7.2 0
6.4 7.2 0
6.8 7.2 0
7.2 7.2 0
7.6 7.2 0
8 7.2 0
8.4 7.2 0
8.8 7.2 0
9.2 7.2 0
9.6 7.2 0
10 7.2 0
10.4 7.2 0
10.8 7.2 0
11.2 7.2 0
11.6 7.2 0
12 7.2 0
12.4 7.2 0
12.8 7.2 0
13.2 7.2 0
13.6 7.2 0
14 7.2 0
14.4 7.2 0
14.8 7.2 0
15.2 7.2 0
15.6 7.2 0
16 7.2 0
16.4 7.2 0
16.8 7.2 0
17.2 7.2 0
17.6 7.2 0
18 7.2 0
18.4 7.2 0
18.8 7.2 0
19.2 7.2 0
19.6 7.2 0
20 7.2 0
0 7.6 0
0.4 7.6 0
0.8 7.6 0
1.2 7.6 0
1.6 7.6 0
2 7.6 0
2.4 7.6 0
2.8 7.6 0
3.2 7.6 0
3.6 7.6 0
4 7.6 0
4.4 7.6 0
4.8 7.6 0
5.2 7.6 0
5.6 7.6 0
6 7.6 0
6.4 7.6 0
6.8 7.6 0
7.2 7.6 0
7.6 7.6 0
8 7.6 0
8.4 7.6 0
8.8 7.6 0
9.2 7.6 0
9.6 7.6 0
10 7.6 0
10.4 7.6 0
10.8 7.6 0
11.2 7.6 0
11.6 7.6 0
12 7.6 0
12.4 7.6 0
12.8 7.6 0
13.2 7.6 0
13.6 7.6 0
14 7.6 0
14.4 7.6 0
14.8 7.6 0
15.2 7.6 0
15.6 7.6 0
16 7.6 0
16.4 7.6 0
16.8 7.6 0
17.2 7.6 0
17.6 7.6 0
18 7.6 0
18.4 7.6 0
18.8 7.6 0
19.2 7.6 0
19.6 7.6 0
20 7.6 0
0 8 0
0.4 8 0
0.8 8 0
1.2 8 0
1.6 8 0
2 8 0
2.4 8 0
2.8 8 0
3.2 8 0
3.6 8 0
4 8 0
4.4 8 0
4.8 8 0
5.2 8 0
5.6 8 0
6 8 0
6.4 8 0
6.8 8 0
7.2 8 0
7.6 8 0
8 8 0
8.4 8 0
8.8 8 0
9.2 8 0
9.6 8 0
10 8 0
10.4 8 0
10.8 8 0
11.2 8 0
11.6 8 0
12 8 0
12.4 8 0
12.8 8 0
13.2 8 0
13.6 8 0
14 8 0
14.4 8 0
14.8 8 0
15.2 8 0
15.6 8 0
16 8 0
16.4 8 0
16.8 8 0
17.2 8 0
17.6 8 0
18 8 0
18.4 8 0
18.8 8 0
19.2 8 0
19.6 8 0
20 8 0
0 8.4 0
0.4 8.4 0
0.8 8.4 0
1.2 8.4 0
1.6 8.4 0
2 8.4 0
2.4 8.4 0
2.8 8.4 0
3.2 8.4 0
3.6 8.4 0
4 8.4 0
4.4 8.4 0
4.8 8.4 0
5.2 8.4 0
5.6 8.4 0
6 8.4 0
6.4 8.4 0
6.8 8.4 0
7.2 8.4 0
7.6 8.4 0
8 8.4 0
8.4 8.4 0
8.8 8.4 0
9.2 8.4 0
9.6 8.4 0
10 8.4 0
10.4 8.4 0
10.8 8.4 0
11.2 8.4 0
11.6 8.4 0
12 8.4 0
12.4 8.4 0
12.8 8.4 0
13.2 8.4 0
13.6 8.4 0
14 8.4 0
14.4 8.4 0
14.8 8.4 0
15.2 8.4 0
15.6 8.4 0
16 8.4 0
16.4 8.4 0
16.8 8.4 0
17.2 8.4 0
17.6 8.4 0
18 8.4 0
18.4 8.4 0
18.8 8.4 0
19.2 8.4 0
19.6 8.4 0
20 8.4 0
0 8.8 0
0.4 8.8 0
0.8 8.8 0
1.2 8.8 0
1.6 8.8 0
2 8.8 0
2.4 8.8 0
2.8 8.8 0
3.2 8.8 0
3.6 8.8 0
4 8.8 0
4.4 8.8 0
4.8 8.8 0
5.2 8.8 0
5.6 8.8 0
6 8.8 0
6.4 8.8 0
6.8 8.8 0
7.2 8.8 0
7.6 8.8 0
8 8.8 0
8.4 8.8 0
8.8 8.8 0
9.2 8.8 0
9.6 8.8 0
10 8.8 0
10.4 8.8 0
10.8 8.8 0
11.2 8.8 0
11.6 8.8 0
12 8.8 0
12.4 8.8 0
12.8 8.8 0
13.2 8.8 0
13.6 8.8 0
14 8.8 0
14.4 8.8 0
14.8 8.8 0
15.2 8.8 0
15.6 8.8 0
16 8.8 0
16.4 8.8 0
16.8 8.8 0
17.2 8.8 0
17.6 8.8 0
18 8.8 0
18.4 8.8 0
18.8 8.8 0
19.2 8.8 0
19.6 8.8 0
20 8.8 0
0 9.2 0
0.4 9.2 0
0.8 9.2 0
1.2 9.2 0
1.6 9.2 0
2 9.2 0
2.4 9.2 0
2.8 9.2 0
3.2 9.2 0
3.6 9.2 0
4 9.2 0
4.4 9.2 0
4.8 9.2 0
5.2 9.2 0
5.6 9.2 0
6 9.2 0
6.4 9.2 0
6.8 9.2 0
7.2 9.2 0
7.6 9.2 0
8 9.2 0
8.4 9.2 0
8.8 9.2 0
9.2 9.2 0
9.6 9.2 0
10 9.2 0
10.4 9.2 0
10.8 9.2 0
11.2 9.2 0
11.6 9.2 0
12 9.2 0
12.4 9.2 0
12.8 9.2 0
13.2 9.2 0
13.6 9.2 0
14 9.2 0
14.4 9.2 0
14.8 9.2 0
15.2 9.2 0
15.6 9.2 0
16 9.2 0
16.4 9.2 0
16.8 9.2 0
17.2 9.2 0
17.6 9.2 0
18 9.2 0
18.4 9.2 0
18.8 9.2 0
19.2 9.2 0
19.6 9.2 0
20 9.2 0
0 9.6 0
0.4 9.6 0
0.8 9.6 0
1.2 9.6 0
1.6 9.6 0
2 9.6 0
2.4 9.6 0
2.8 9.6 0
3.2 9.6 0
3.6 9.6 0
4 9.6 0
4.4 9.6 0
4.8 9.6 0
5.2 9.6 0
5.6 9.6 0
6 9.6 0
6.4 9.6 0
6.8 9.6 0
7.2 9.6 0
7.6 9.6 0
8 9.6 0
8.4 9.6 0
8.8 9.6 0
9.2 9.6 0
9.6 9.6 0
10 9.6 0
10.4 9.6 0
10.8 9.6 0
11.2 9.6 0
11.6 9.6 0
12 9.6 0
12.4 9.6 0
12.8 9.6 0
13.2 9.6 0
13.6 9.6 0
14 9.6 0
14.4 9.6 0
14.8 9.6 0
15.2 9.6 0
15.6 9.6 0
16 9.6 0
16.4 9.6 0
16.8 9.6 0
17.2 9.6 0
17.6 9.6 0
18 9.6 0
18.4 9.6 0
18.8 9.6 0
19.2 9.6 0
19.6 9.6 0
20 9.6 0
0 10 0
0.4 10 0
0.8 10 0
1.2 10 0
1.6 10 0
2 10 0
2.4 10 0
2.8 10 0
3.2 10 0
3.6 10 0
4 10 0
4.4 10 0
4.8 10 0
5.2 10 0
5.6 10 0
6 10 0
6.4 10 0
6.8 10 0
7.2 10 0
7.6 10 0
8 10 0
8.4 10 0
8.8 10 0
9.2 10 0
9.6 10 0
10 10 0
10.4 10 0
10.8 10 0
11.2 10 0
11.6 10 0
12 10 0
12.4 10 0
12.8 10 0
13.2 10 0
13.6 10 0
14 10 0
14.4 10 0
14.8 10 0
15.2 10 0
15.6 10 0
16 10 0
16.4 10 0
16.8 10 0
17.2 10 0
17.6 10 0
18 10 0
18.4 10 0
18.8 10 0
19.2 10 0
19.6 10 0
20 10 0

CELL_DATA 1250
SCALARS phi float
LOOKUP_TABLE default 
4.711
4.711
4.711
4.711
4.711
4.711
4.711
4.711
4.711
4.711
4.711
4.711
4.711
4.711
4.711
4.711
4.711
4.711
4.711
4.711
4.711
4.711
4.711
4.711
4.711
4.711
4.711
4.711
4.711
4.711
4.711
4.711
4.711
4.711
4.711
4.711
4.711
4.711
4.711
4.711
4.711
4.711
4.711
4.711
4.711
4.711
4.711
4.711
4.711
4.711
4.711
4.711
4.711
4.711
4.711
4.711
4.711
4.711
4.711
4.711
4.711
4.711
4.711
4.711
4.711
4.711
4.711
4.711
4.711
4.711
4.711
4.711
4.711
4.711
4.711
4.711
4.711
4.711
4.711
4.711
4.711
4.711
4.711
4.711
4.711
4.711
4.711
4.711
4.711
4.711
4.711
4.711
4.711
4.711
4.711
4.711
4.711
4.711
4.711
4.711
4.711
4.711
4.711
4.711
4.711
4.711
4.711
4.711
4.711
4.711
4.711
4.711
4.711
4.711
4.711
4.711
4.711
4.711
4.711
4.711
4.711
4.711
4.711
4.711
4.711
4.711
4.711
4.711
4.711
4.711
4.711
4.711
4.711
4.711
4.711
4.711
4.711
4.711
4.711
4.711
4.711
4.711
4.711
4.711
4.711
4.711
4.711
4.711
4.711
4.711
4.711
4.711
4.711
4.711
4.711
4.711
4.711
4.711
4.711
4.711
4.711
4.711
4.711
4.711
4.711
4.711
4.711
4.711
4.711
4.711
4.711
4.711
4.711
4.711
4.711
4.711
4.711
4.711
4.711
4.711
4.711
4.711
4.711
4.711
4.711
4.711
4.711
4.711
4.711
4.711
4.711
4.711
4.711
4.711
4.711
4.711
4.711
4.711
4.711
4.711
4.711
4.711
4.711
4.711
4.711
4.711
4.711
4.711
4.711
4.711
4.711
4.711
4.711
4.711
4.711
4.711
4.711
4.711
4.711
4.711
4.711
4.711
4.711
4.711
4.711
4.711
4.711
4.711
4.711
4.711
4.711
4.711
4.711
4.711
4.711
4.711
4.711
4.711
4.711
4.711
4.711
4.711
4.711
4.711
4.711
4.711
4.711
4.711
4.711
4.711
4.711
4.711
4.711
4.711
4.711
4.711
4.711
4.711
4.711
4.711
4.711
4.711
4.711
4.711
4.711
4.711
4.711
4.711
4.711
4.711
4.711
4.711
4.711
4.711
4.711
4.711
4.711
4.711
4.711
4.711
4.711
4.711
4.711
4.711
4.711
4.711
4.711
4.711
4.711
4.711
4.711
4.711
4.711
4.711
4.711
4.711
4.711
4.711
4.711
4.711
4.711
4.711
4.711
4.711
4.711
4.711
4.711
4.711
4.711
4.711
4.711
4.711
4.711
4.711
4.711
4.711
4.711
4.711
4.711
4.711
4.711
4.711
4.711
4.711
4.711
4.711
4.711
4.711
4.711
4.711
4.711
4.711
4.711
4.711
4.711
4.711
4.711
4.711
4.711
4.711
4.711
4.711
4.711
4.711
4.711
4.711
4.711
4.711
4.711
4.711
4.711
4.711
4.711
4.711
4.711
4.711
4.711
4.711
4.711
4.711
4.711
4.711
4.711
4.711
4.711
4.711
4.711
4.711
4.711
4.711
4.711
4.711
4.711
4.711
4.711
4.711
4.711
4.711
4.711
4.711
4.711
4.711
4.711
4.711
4.711
4.711
4.711
4.711
4.711
4.711
4.711
4.711
4.711
4.711
4.711
4.711
4.711
4.711
4.711
4.711
4.711
4.711
4.711
4.711
4.711
4.711
4.711
4.711
4.711
4.711
4.711
4.711
4.711
4.711
4.711
4.711
4.711
4.711
4.711
4.711
4.711
4.711
4.711
4.711
4.711
4.711
4.711
4.711
4.711
4.711
4.711
4.711
4.711
4.711
4.711
4.711
4.711
4.711
4.711
4.711
4.711
4.711
4.711
4.711
4.711
4.711
4.711
4.711
4.711
4.711
4.711
4.711
4.711
4.711
4.711
4.711
4.711
4.711
4.711
4.711
4.711
4.711
4.711
4.711
4.711
4.711
4.711
4.711
4.711
4.711
4.711
4.711
4.711
4.711
4.711
4.711
4.711
4.711
4.711
4.711
4.711
4.711
4.711
4.711
4.711
4.711
4.711
4.711
4.711
4.711
4.711
4.711
4.711
4.711
4.711
4.711
4.711
4.711
4.711
4.711
4.711
4.711
4.711
4.711
4.711
4.711
4.711
4.711
4.711
4.711
4.711
4.711
4.711
4.711
4.711
4.711
4.711
4.711
4.711
4.711
4.711
4.711
4.711
4.711
4.711
4.711
4.711
4.711
4.711
4.711
4.711
4.711
4.711
4.711
4.711
4.711
4.711
4.711
4.711
4.711
4.711
4.711
4.711
4.711
4.711
4.711
4.711
4.711
4.711
4.711
4.711
4.711
4.711
4.711
4.711
4.711
4.711
4.711
4.711
4.711
4.711
4.711
4.711
4.711
4.711
4.711
4.711
4.711
4.711
4.711
4.711
4.711
4.711
4.711
4.711
4.711
4.711
4.711
4.711
4.711
4.711
4.711
4.711
4.711
4.711
4.711
4.711
4.711
4.711
4.711
4.711
4.711
4.711
4.711
4.711
4.711
4.711
4.711
4.711
4.711
4.711
4.711
4.711
4.711
4.711
4.711
4.711
4.711
4.711
4.711
4.711
4.711
4.711
4.711
4.711
4.711
4.711
4.711
4.711
4.711
4.711
4.711
4.711
4.711
4.711
4.711
4.711
4.711
4.711
4.711
4.711
4.711
4.711
4.711
4.711
4.711
4.711
4.711
4.711
4.711
4.711
4.711
4.711
4.711
4.711
4.711
4.711
4.711
4.711
4.711
4.711
4.711
4.711
4.711
4.711
4.711
4.711
4.711
4.711
4.711
4.711
4.711
4.711
4.711
4.711
4.711
4.711
4.711
4.711
4.711
4.711
4.711
4.711
4.711
4.711
4.711
4.711
4.711
4.711
4.711
4.711
4.711
4.711
4.711
4.711
4.711
4.711
4.711
4.711
4.711
4.711
4.711
4.711
4.711
4.711
4.711
4.711
4.711
4.711
4.711
4.711
4.711
4.711
4.711
4.711
4.711
4.711
4.711
4.711
4.711
4.711
4.711
4.711
4.711
4.711
4.711
4.711
4.711
4.711
4.711
4.711
4.711
4.711
4.711
4.711
4.711
4.711
4.711
4.711
4.711
4.711
4.711
4.711
4.711
4.711
4.711
4.711
4.711
4.711
4.711
4.711
4.711
4.711
4.711
4.711
4.711
4.711
4.711
4.711
4.711
4.711
4.711
4.711
4.711
4.711
4.711
4.711
4.711
4.711
4.711
4.711
4.711
4.711
4.711
4.711
4.711
4.711
4.711
4.711
4.711
4.711
4.711
4.711
4.711
4.711
4.711
4.711
4.711
4.711
4.711
4.711
4.711
4.711
4.711
4.711
4.711
4.711
4.711
4.711
4.711
4.711
4.711
4.711
4.711
4.711
4.711
4.711
4.711
4.711
4.711
4.711
4.711
4.711
4.711
4.711
4.711
4.711
4.711
4.711
4.711
4.711
4.711
4.711
4.711
4.711
4.711
4.711
4.711
4.711
4.711
4.711
4.711
4.711
4.711
4.711
4.711
4.711
4.711
4.711
4.711
4.711
4.711
4.711
4.711
4.711
4.711
4.711
4.711
4.711
4.711
4.711
4.711
4.711
4.711
4.711
4.711
4.711
4.711
4.711
4.711
4.711
4.711
4.711
4.711
4.711
4.711
4.711
4.711
4.711
4.711
4.711
4.711
4.711
4.711
4.711
4.711
4.711
4.711
4.711
4.711
4.711
4.711
4.711
4.711
4.711
4.711
4.711
4.711
4.711
4.711
4.711
4.711
4.711
4.711
4.711
4.711
4.711
4.711
4.711
4.711
4.711
4.711
4.711
4.711
4.711
4.711
4.711
4.711
4.711
4.711
4.711
4.711
4.711
4.711
4.711
4.711
4.711
4.711
4.711
4.711
4.711
4.711
4.711
4.711
4.711
4.711
4.711
4.711
4.711
4.711
4.711
4.711
4.711
4.711
4.711
4.711
4.711
4.711
4.711
4.711
4.711
4.711
4.711
4.711
4.711
4.711
4.711
4.711
4.711
4.711
4.711
4.711
4.711
4.711
4.711
4.711
4.711
4.711
4.711
4.711
4.711
4.711
4.711
4.711
4.711
4.711
4.711
4.711
4.711
4.711
4.711
4.711
4.711
4.711
4.711
4.711
4.711
4.711
4.711
4.711
4.711
4.711
4.711
4.711
4.711
4.711
4.711
4.711
4.711
4.711
4.711
4.711
4.711
4.711
4.711
4.711
4.711
4.711
4.711
4.711
4.711
4.711
4.711
4.711
4.711
4.711
4.711
4.711
4.711
4.711
4.711
4.711
4.711
4.711
4.711
4.711
4.711
4.711
4.711
4.711
4.711
4.711
4.711
4.711
4.711
4.711
4.711
4.711
4.711
4.711
4.711
4.711
4.711
4.711
4.711
4.711
4.711
4.711
4.711
4.711
4.711
4.711
4.711
4.711
4.711
4.711
4.711
4.711
4.711
4.711
4.711
4.711
4.711
4.711
4.711
4.711
4.711
4.711
4.711
4.711
4.711
4.711
4.711
4.711
4.711
4.711
4.711
4.711
4.711
4.711
4.711
4.711
4.711
4.711
4.711
4.711
4.711
4.711
4.711
4.711
4.711
4.711
4.711
4.711
4.711
4.711
4.711
4.711
4.711
4.711
4.711
4.711
4.711
4.711
4.711
4.711
4.711
4.711
4.711
4.711
4.711
4.711
4.711
4.711
4.711
4.711
4.711
4.711
4.711
4.711
4.711
4.711
4.711
4.711
4.711
4.711
4.711
4.711
4.711
4.711
4.711
4.711
4.711
4.711
4.711
4.711
4.711
4.711
4.711
4.711
4.711
4.711
4.711
4.711
4.711
4.711
4.711
4.711
4.711
4.711
4.711
4.711
4.711
4.711
4.711
4.711
4.711
4.711
4.711
4.711
4.711
4.711
4.711
4.711
4.711
4.711
4.711
4.711
4.711
4.711
4.711
4.711
4.711
4.711
4.711
4.711
4.711
4.711
4.711
4.711
4.711
4.711
4.711
4.711
4.711
4.711
4.711
4.711
4.711
4.711
4.711
4.711
4.711
4.711
4.711
4.711
4.711
4.711
4.711
4.711
4.711
4.711
4.711
4.711
4.711
4.711
4.711
4.711
4.711
4.711
4.711
4.711
4.711
4.711
4.711
4.711
4.711
4.711
4.711
4.711
4.711
4.711
4.711
4.711
4.711
4.711
4.711
4.711
4.711
4.711
4.711
4.711
4.711
4.711
4.711
4.711
4.711
4.711
4.711
4.711
4.711
4.711
4.711
4.711
4.711
4.711
4.711
4.711
4.711
4.711
4.711
4.711
4.711
4.711
4.711
4.711
4.711
4.711
4.711
4.711
4.711
4.711
4.711
4.711
4.711
4.711
4.711
4.711
4.711
4.711

SCALARS p float
LOOKUP_TABLE default 
-5.59707
-5.59707
-7.49678
-9.30279
-11.0703
-12.8016
-14.4776
-16.0669
-17.5303
-18.8257
-19.9148
-20.77
-21.3775
-21.7375
-21.862
-21.7711
-21.4894
-21.0431
-20.4573
-19.7546
-18.955
-18.0755
-17.1309
-16.1344
-15.0973
-14.03
-12.9413
-11.8393
-10.7306
-9.62092
-8.5145
-7.41404
-6.32055
-5.23331
-4.1501
-3.06768
-1.98259
-0.892093
0.204743
1.30606
2.40654
3.49708
4.565
5.5947
6.56866
7.4686
8.27658
8.97573
9.55091
10
-5.59707
-5.59707
-7.49678
-9.30279
-11.0703
-12.8016
-14.4776
-16.0669
-17.5303
-18.8257
-19.9148
-20.77
-21.3775
-21.7375
-21.862
-21.7711
-21.4894
-21.0431
-20.4573
-19.7546
-18.955
-18.0755
-17.1309
-16.1344
-15.0973
-14.03
-12.9413
-11.8393
-10.7306
-9.62092
-8.5145
-7.41404
-6.32055
-5.23331
-4.1501
-3.06768
-1.98259
-0.892093
0.204743
1.30606
2.40654
3.49708
4.565
5.5947
6.56866
7.4686
8.27658
8.97573
9.55091
10
-6.08585
-6.08585
-7.49398
-9.1458
-10.9116
-12.7355
-14.5653
-16.3382
-17.9828
-19.4273
-20.6125
-21.5035
-22.0903
-22.3833
-22.4071
-22.195
-21.7837
-21.2099
-20.5071
-19.7038
-18.823
-17.8828
-16.897
-15.8764
-14.8295
-13.7634
-12.6843
-11.5977
-10.5088
-9.42167
-8.3398
-7.26529
-6.19874
-5.13908
-4.08371
-3.02893
-1.97065
-0.905413
0.168466
1.24988
2.33412
3.41255
4.47274
5.49913
6.47413
7.37931
8.19676
8.91029
9.50669
10
-5.91585
-5.91585
-7.00759
-8.5562
-10.4314
-12.555
-14.8194
-17.0885
-19.2109
-21.0382
-22.4613
-23.4361
-23.9707
-24.104
-23.8909
-23.3931
-22.674
-21.7932
-20.803
-19.7457
-18.6526
-17.5451
-16.4362
-15.3326
-14.2374
-13.1512
-12.0741
-11.006
-9.94714
-8.89798
-7.85901
-6.83024
-5.81079
-4.79858
-3.79031
-2.78176
-1.76841
-0.746384
0.286495
1.32964
2.37892
3.42631
4.46002
5.46514
6.42472
7.32105
8.1371
8.85803
9.4729
10
-4.6695
-4.6695
-5.62558
-7.20676
-9.39835
-12.1731
-15.3242
-18.5743
-21.619
-24.1507
-25.9661
-27.0343
-27.4231
-27.2337
-26.5744
-25.554
-24.2779
-22.8435
-21.3342
-19.8158
-18.3341
-16.9168
-15.5762
-14.3133
-13.1216
-11.9914
-10.9115
-9.87188
-8.86373
-7.88014
-6.91569
-5.96592
-5.02671
-4.09383
-3.1627
-2.22847
-1.28644
-0.332811
0.634459
1.61478
2.60426
3.59545
4.57747
5.53661
6.45735
7.32357
8.11987
8.83305
9.45378
10
-2.04487
-2.04487
-2.93209
-4.62003
-7.35846
-11.3522
-16.1131
-21.1022
-25.7623
-29.4497
-31.7816
-32.8506
-32.8885
-32.111
-30.7036
-28.8377
-26.6775
-24.3744
-22.0578
-19.8272
-17.7492
-15.8594
-14.1676
-12.6648
-11.3301
-10.1368
-9.05726
-8.06549
-7.13906
-6.25953
-5.41224
-4.58564
-3.77051
-2.95919
-2.14509
-1.32251
-0.486678
0.365761
1.23626
2.12379
3.02442
3.93118
4.83428
5.72165
6.57976
7.39468
8.15303
8.84302
9.45517
10
2.17746
2.17746
1.47497
-0.121
-3.46329
-9.67896
-17.1915
-25.0722
-32.4767
-37.9638
-40.749
-41.4894
-40.7979
-39.0441
-36.4858
-33.3601
-29.9056
-26.3487
-22.8833
-19.6551
-16.7561
-14.2289
-12.0751
-10.2678
-8.76258
-7.5077
-6.45088
-5.54404
-4.74574
-4.0219
-3.3455
-2.69567
-2.05652
-1.41604
-0.765144
-0.0971248
0.59271
1.30706
2.04651
2.80934
3.59143
4.38631
5.18539
5.97845
6.75432
7.50152
8.20903
8.86655
9.46415
10
7.95412
7.95412
7.85216
7.24041
4.11452
-6.618
-18.5002
-30.7286
-42.782
-51.0186
-53.4962
-53.1411
-51.1897
-48.0286
-43.8901
-39.056
-33.8592
-28.633
-23.6618
-19.1524
-15.226
-11.9263
-9.23655
-7.09915
-5.43375
-4.15213
-3.16843
-2.40547
-1.7977
-1.2919
-0.846455
-0.429835
-0.0188271
0.403171
0.847624
1.32202
1.83069
2.37538
2.95557
3.56868
4.21029
4.87431
5.55334
6.23895
6.92223
7.59423
8.24639
8.87076
9.45936
10
14.6341
14.6341
15.8408
18.3908
20.0389
-2.64492
-19.6526
-36.1812
-55.7067
-68.498
-68.103
-65.7142
-62.3588
-57.7733
-51.9577
-45.2229
-38.0399
-30.8986
-24.2117
-18.267
-13.2194
-9.10834
-5.88729
-3.45483
-1.68256
-0.436012
0.411337
0.970395
1.33334
1.57361
1.74755
1.8969
2.05151
2.23175
2.45078
2.71625
3.03171
3.39764
3.81222
4.27186
4.77165
5.30568
5.86732
6.44952
7.04509
7.64702
8.24895
8.84571
9.43411
10
20.6281
20.6281
23.3423
31.2026
20.0389
-2.64492
-19.6526
-36.1812
-55.7067
-84.7916
-77.1789
-73.483
-69.9052
-64.8829
-58.1523
-50.0839
-41.3264
-32.5699
-24.3932
-17.1924
-11.1723
-6.37582
-2.72897
-0.086853
1.72735
2.89375
3.57791
3.92191
4.04158
4.02752
3.94804
3.85274
3.77623
3.74134
3.76205
3.84571
3.99492
4.20892
4.48465
4.81756
5.20212
5.63228
6.10171
6.60399
7.13279
7.68205
8.24643
8.82228
9.41008
10
23.9936
23.9936
26.0166
31.2026
31.2026
0
0
0
-84.7916
-84.7916
-76.9472
-74.6093
-72.0012
-67.4532
-60.7601
-52.3273
-42.8968
-33.303
-24.2694
-16.3025
-9.67104
-4.44071
-0.529815
2.23218
4.05468
5.14959
5.70957
5.89789
5.84605
5.65572
5.40268
5.14135
4.90911
4.73022
4.61903
4.58267
4.62312
4.73883
4.92596
5.17926
5.4927
5.85996
6.27458
6.7302
7.22054
7.73949
8.28131
8.84125
9.4176
10
25.0821
25.0821
25.5297
25.5297
0
0
0
0
0
-73.2927
-73.2927
-73.0997
-71.0924
-66.8365
-60.3496
-52.0414
-42.6324
-32.9564
-23.7633
-15.6025
-8.78692
-3.41365
0.585161
3.38123
5.19367
6.24647
6.74325
6.85594
6.72245
6.44896
6.11435
5.77502
5.4696
5.22299
5.04983
4.95723
4.94702
5.01738
5.16417
5.38186
5.66415
6.00447
6.39618
6.83271
7.30753
7.81405
8.3455
8.89454
9.45259
10
25.3433
25.3433
25.4685
25.4685
0
0
0
0
0
-71.8239
-71.8239
-71.9513
-70.1431
-66.0193
-59.6391
-51.4286
-42.1079
-32.5107
-23.3863
-15.2757
-8.48367
-3.11211
0.892096
3.68961
5.49619
6.53681
7.01713
7.11085
6.95715
6.66315
6.30833
5.94957
5.62578
5.36206
5.17315
5.06623
5.04313
5.10202
5.23871
5.44762
5.72239
6.05637
6.44283
6.87509
7.34649
7.8502
8.37893
8.92401
9.47299
10
25.0821
25.0821
25.5297
25.5297
0
0
0
0
0
-73.2927
-73.2927
-73.0997
-71.0924
-66.8365
-60.3496
-52.0414
-42.6324
-32.9564
-23.7633
-15.6025
-8.78692
-3.41365
0.585161
3.38123
5.19367
6.24647
6.74325
6.85594
6.72245
6.44896
6.11435
5.77502
5.4696
5.22299
5.04983
4.95723
4.94702
5.01738
5.16417
5.38186
5.66415
6.00447
6.39618
6.83271
7.30753
7.81405
8.3455
8.89454
9.45259
10
23.9936
23.9936
26.0166
31.2026
31.2026
0
0
0
-84.7916
-84.7916
-76.9472
-74.6093
-72.0012
-67.4532
-60.7601
-52.3273
-42.8968
-33.303
-24.2694
-16.3025
-9.67104
-4.44071
-0.529815
2.23218
4.05468
5.14959
5.70957
5.89789
5.84605
5.65572
5.40268
5.14135
4.90911
4.73022
4.61903
4.58267
4.62312
4.73883
4.92596
5.17926
5.4927
5.85996
6.27458
6.7302
7.22054
7.73949
8.28131
8.84125
9.4176
10
20.6281
20.6281
23.3423
31.2026
20.0389
-2.64492
-19.6526
-36.1812
-55.7067
-84.7916
-77.1789
-73.483
-69.9052
-64.8829
-58.1523
-50.0839
-41.3264
-32.5699
-24.3932
-17.1924
-11.1723
-6.37582
-2.72897
-0.086853
1.72735
2.89375
3.57791
3.92191
4.04158
4.02752
3.94804
3.85274
3.77623
3.74134
3.76205
3.84571
3.99492
4.20892
4.48465
4.81756
5.20212
5.63228
6.10171
6.60399
7.13279
7.68205
8.24643
8.82228
9.41008
10
14.6341
14.6341
15.8408
18.3908
20.0389
-2.64492
-19.6526
-36.1812
-55.7067
-68.498
-68.103
-65.7142
-62.3588
-57.7733
-51.9577
-45.2229
-38.0399
-30.8986
-24.2117
-18.267
-13.2194
-9.10834
-5.88729
-3.45483
-1.68256
-0.436012
0.411337
0.970395
1.33334
1.57361
1.74755
1.8969
2.05151
2.23175
2.45078
2.71625
3.03171
3.39764
3.81222
4.27186
4.77165
5.30568
5.86732
6.44952
7.04509
7.64702
8.24895
8.84571
9.43411
10
7.95412
7.95412
7.85216
7.24041
4.11452
-6.618
-18.5002
-30.7286
-42.782
-51.0186
-53.4962
-53.1411
-51.1897
-48.0286
-43.8901
-39.056
-33.8592
-28.633
-23.6618
-19.1524
-15.226
-11.9263
-9.23655
-7.09915
-5.43375
-4.15213
-3.16843
-2.40547
-1.7977
-1.2919
-0.846455
-0.429835
-0.0188271
0.403171
0.847624
1.32202
1.83069
2.37538
2.95557
3.56868
4.21029
4.87431
5.55334
6.23895
6.92223
7.59423
8.24639
8.87076
9.45936
10
2.17746
2.17746
1.47497
-0.121
-3.46329
-9.67896
-17.1915
-25.0722
-32.4767
-37.9638
-40.749
-41.4894
-40.7979
-39.0441
-36.4858
-33.3601
-29.9056
-26.3487
-22.8833
-19.6551
-16.7561
-14.2289
-12.0751
-10.2678
-8.76258
-7.5077
-6.45088
-5.54404
-4.74574
-4.0219
-3.3455
-2.69567
-2.05652
-1.41604
-0.765144
-0.0971248
0.59271
1.30706
2.04651
2.80934
3.59143
4.38631
5.18539
5.97845
6.75432
7.50152
8.20903
8.86655
9.46415
10
-2.04487
-2.04487
-2.93209
-4.62003
-7.35846
-11.3522
-16.1131
-21.1022
-25.7623
-29.4497
-31.7816
-32.8506
-32.8885
-32.111
-30.7036
-28.8377
-26.6775
-24.3744
-22.0578
-19.8272
-17.7492
-15.8594
-14.1676
-12.6648
-11.3301
-10.1368
-9.05726
-8.06549
-7.13906
-6.25953
-5.41224
-4.58564
-3.77051
-2.95919
-2.14509
-1.32251
-0.486678
0.365761
1.23626
2.12379
3.02442
3.93118
4.83428
5.72165
6.57976
7.39468
8.15303
8.84302
9.45517
10
-4.6695
-4.6695
-5.62558
-7.20676
-9.39835
-12.1731
-15.3242
-18.5743
-21.619
-24.1507
-25.9661
-27.0343
-27.4231
-27.2337
-26.5744
-25.554
-24.2779
-22.8435
-21.3342
-19.8158
-18.3341
-16.9168
-15.5762
-14.3133
-13.1216
-11.9914
-10.9115
-9.87188
-8.86373
-7.88014
-6.91569
-5.96592
-5.02671
-4.09383
-3.1627
-2.22847
-1.28644
-0.332811
0.634459
1.61478
2.60426
3.59545
4.57747
5.53661
6.45735
7.32357
8.11987
8.83305
9.45378
10
-5.91585
-5.91585
-7.00759
-8.5562
-10.4315
-12.555
-14.8194
-17.0885
-19.2109
-21.0382
-22.4613
-23.4361
-23.9707
-24.104
-23.8909
-23.3931
-22.674
-21.7932
-20.803
-19.7457
-18.6526
-17.5451
-16.4362
-15.3326
-14.2374
-13.1512
-12.0741
-11.006
-9.94714
-8.89798
-7.85901
-6.83024
-5.81079
-4.79858
-3.79031
-2.78176
-1.76841
-0.746384
0.286495
1.32964
2.37892
3.42631
4.46002
5.46514
6.42472
7.32105
8.1371
8.85803
9.4729
10
-6.08585
-6.08585
-7.49398
-9.1458
-10.9116
-12.7355
-14.5653
-16.3382
-17.9828
-19.4273
-20.6125
-21.5035
-22.0903
-22.3833
-22.4071
-22.195
-21.7837
-21.2099
-20.5071
-19.7038
-18.823
-17.8828
-16.897
-15.8764
-14.8295
-13.7634
-12.6843
-11.5977
-10.5088
-9.42167
-8.3398
-7.26529
-6.19874
-5.13908
-4.08371
-3.02893
-1.97065
-0.905413
0.168466
1.24988
2.33412
3.41255