# vtk DataFile Version 3.0
vtk output309
ASCII
DATASET STRUCTURED_GRID
DIMENSIONS 51 26 1
POINTS 1326 float
0 0 0
0.4 0 0
0.8 0 0
1.2 0 0
1.6 0 0
2 0 0
2.4 0 0
2.8 0 0
3.2 0 0
3.6 0 0
4 0 0
4.4 0 0
4.8 0 0
5.2 0 0
5.6 0 0
6 0 0
6.4 0 0
6.8 0 0
7.2 0 0
7.6 0 0
8 0 0
8.4 0 0
8.8 0 0
9.2 0 0
9.6 0 0
10 0 0
10.4 0 0
10.8 0 0
11.2 0 0
11.6 0 0
12 0 0
12.4 0 0
12.8 0 0
13.2 0 0
13.6 0 0
14 0 0
14.4 0 0
14.8 0 0
15.2 0 0
15.6 0 0
16 0 0
16.4 0 0
16.8 0 0
17.2 0 0
17.6 0 0
18 0 0
18.4 0 0
18.8 0 0
19.2 0 0
19.6 0 0
20 0 0
0 0.4 0
0.4 0.4 0
0.8 0.4 0
1.2 0.4 0
1.6 0.4 0
2 0.4 0
2.4 0.4 0
2.8 0.4 0
3.2 0.4 0
3.6 0.4 0
4 0.4 0
4.4 0.4 0
4.8 0.4 0
5.2 0.4 0
5.6 0.4 0
6 0.4 0
6.4 0.4 0
6.8 0.4 0
7.2 0.4 0
7.6 0.4 0
8 0.4 0
8.4 0.4 0
8.8 0.4 0
9.2 0.4 0
9.6 0.4 0
10 0.4 0
10.4 0.4 0
10.8 0.4 0
11.2 0.4 0
11.6 0.4 0
12 0.4 0
12.4 0.4 0
12.8 0.4 0
13.2 0.4 0
13.6 0.4 0
14 0.4 0
14.4 0.4 0
14.8 0.4 0
15.2 0.4 0
15.6 0.4 0
16 0.4 0
16.4 0.4 0
16.8 0.4 0
17.2 0.4 0
17.6 0.4 0
18 0.4 0
18.4 0.4 0
18.8 0.4 0
19.2 0.4 0
19.6 0.4 0
20 0.4 0
0 0.8 0
0.4 0.8 0
0.8 0.8 0
1.2 0.8 0
1.6 0.8 0
2 0.8 0
2.4 0.8 0
2.8 0.8 0
3.2 0.8 0
3.6 0.8 0
4 0.8 0
4.4 0.8 0
4.8 0.8 0
5.2 0.8 0
5.6 0.8 0
6 0.8 0
6.4 0.8 0
6.8 0.8 0
7.2 0.8 0
7.6 0.8 0
8 0.8 0
8.4 0.8 0
8.8 0.8 0
9.2 0.8 0
9.6 0.8 0
10 0.8 0
10.4 0.8 0
10.8 0.8 0
11.2 0.8 0
11.6 0.8 0
12 0.8 0
12.4 0.8 0
12.8 0.8 0
13.2 0.8 0
13.6 0.8 0
14 0.8 0
14.4 0.8 0
14.8 0.8 0
15.2 0.8 0
15.6 0.8 0
16 0.8 0
16.4 0.8 0
16.8 0.8 0
17.2 0.8 0
17.6 0.8 0
18 0.8 0
18.4 0.8 0
18.8 0.8 0
19.2 0.8 0
19.6 0.8 0
20 0.8 0
0 1.2 0
0.4 1.2 0
0.8 1.2 0
1.2 1.2 0
1.6 1.2 0
2 1.2 0
2.4 1.2 0
2.8 1.2 0
3.2 1.2 0
3.6 1.2 0
4 1.2 0
4.4 1.2 0
4.8 1.2 0
5.2 1.2 0
5.6 1.2 0
6 1.2 0
6.4 1.2 0
6.8 1.2 0
7.2 1.2 0
7.6 1.2 0
8 1.2 0
8.4 1.2 0
8.8 1.2 0
9.2 1.2 0
9.6 1.2 0
10 1.2 0
10.4 1.2 0
10.8 1.2 0
11.2 1.2 0
11.6 1.2 0
12 1.2 0
12.4 1.2 0
12.8 1.2 0
13.2 1.2 0
13.6 1.2 0
14 1.2 0
14.4 1.2 0
14.8 1.2 0
15.2 1.2 0
15.6 1.2 0
16 1.2 0
16.4 1.2 0
16.8 1.2 0
17.2 1.2 0
17.6 1.2 0
18 1.2 0
18.4 1.2 0
18.8 1.2 0
19.2 1.2 0
19.6 1.2 0
20 1.2 0
0 1.6 0
0.4 1.6 0
0.8 1.6 0
1.2 1.6 0
1.6 1.6 0
2 1.6 0
2.4 1.6 0
2.8 1.6 0
3.2 1.6 0
3.6 1.6 0
4 1.6 0
4.4 1.6 0
4.8 1.6 0
5.2 1.6 0
5.6 1.6 0
6 1.6 0
6.4 1.6 0
6.8 1.6 0
7.2 1.6 0
7.6 1.6 0
8 1.6 0
8.4 1.6 0
8.8 1.6 0
9.2 1.6 0
9.6 1.6 0
10 1.6 0
10.4 1.6 0
10.8 1.6 0
11.2 1.6 0
11.6 1.6 0
12 1.6 0
12.4 1.6 0
12.8 1.6 0
13.2 1.6 0
13.6 1.6 0
14 1.6 0
14.4 1.6 0
14.8 1.6 0
15.2 1.6 0
15.6 1.6 0
16 1.6 0
16.4 1.6 0
16.8 1.6 0
17.2 1.6 0
17.6 1.6 0
18 1.6 0
18.4 1.6 0
18.8 1.6 0
19.2 1.6 0
19.6 1.6 0
20 1.6 0
0 2 0
0.4 2 0
0.8 2 0
1.2 2 0
1.6 2 0
2 2 0
2.4 2 0
2.8 2 0
3.2 2 0
3.6 2 0
4 2 0
4.4 2 0
4.8 2 0
5.2 2 0
5.6 2 0
6 2 0
6.4 2 0
6.8 2 0
7.2 2 0
7.6 2 0
8 2 0
8.4 2 0
8.8 2 0
9.2 2 0
9.6 2 0
10 2 0
10.4 2 0
10.8 2 0
11.2 2 0
11.6 2 0
12 2 0
12.4 2 0
12.8 2 0
13.2 2 0
13.6 2 0
14 2 0
14.4 2 0
14.8 2 0
15.2 2 0
15.6 2 0
16 2 0
16.4 2 0
16.8 2 0
17.2 2 0
17.6 2 0
18 2 0
18.4 2 0
18.8 2 0
19.2 2 0
19.6 2 0
20 2 0
0 2.4 0
0.4 2.4 0
0.8 2.4 0
1.2 2.4 0
1.6 2.4 0
2 2.4 0
2.4 2.4 0
2.8 2.4 0
3.2 2.4 0
3.6 2.4 0
4 2.4 0
4.4 2.4 0
4.8 2.4 0
5.2 2.4 0
5.6 2.4 0
6 2.4 0
6.4 2.4 0
6.8 2.4 0
7.2 2.4 0
7.6 2.4 0
8 2.4 0
8.4 2.4 0
8.8 2.4 0
9.2 2.4 0
9.6 2.4 0
10 2.4 0
10.4 2.4 0
10.8 2.4 0
11.2 2.4 0
11.6 2.4 0
12 2.4 0
12.4 2.4 0
12.8 2.4 0
13.2 2.4 0
13.6 2.4 0
14 2.4 0
14.4 2.4 0
14.8 2.4 0
15.2 2.4 0
15.6 2.4 0
16 2.4 0
16.4 2.4 0
16.8 2.4 0
17.2 2.4 0
17.6 2.4 0
18 2.4 0
18.4 2.4 0
18.8 2.4 0
19.2 2.4 0
19.6 2.4 0
20 2.4 0
0 2.8 0
0.4 2.8 0
0.8 2.8 0
1.2 2.8 0
1.6 2.8 0
2 2.8 0
2.4 2.8 0
2.8 2.8 0
3.2 2.8 0
3.6 2.8 0
4 2.8 0
4.4 2.8 0
4.8 2.8 0
5.2 2.8 0
5.6 2.8 0
6 2.8 0
6.4 2.8 0
6.8 2.8 0
7.2 2.8 0
7.6 2.8 0
8 2.8 0
8.4 2.8 0
8.8 2.8 0
9.2 2.8 0
9.6 2.8 0
10 2.8 0
10.4 2.8 0
10.8 2.8 0
11.2 2.8 0
11.6 2.8 0
12 2.8 0
12.4 2.8 0
12.8 2.8 0
13.2 2.8 0
13.6 2.8 0
14 2.8 0
14.4 2.8 0
14.8 2.8 0
15.2 2.8 0
15.6 2.8 0
16 2.8 0
16.4 2.8 0
16.8 2.8 0
17.2 2.8 0
17.6 2.8 0
18 2.8 0
18.4 2.8 0
18.8 2.8 0
19.2 2.8 0
19.6 2.8 0
20 2.8 0
0 3.2 0
0.4 3.2 0
0.8 3.2 0
1.2 3.2 0
1.6 3.2 0
2 3.2 0
2.4 3.2 0
2.8 3.2 0
3.2 3.2 0
3.6 3.2 0
4 3.2 0
4.4 3.2 0
4.8 3.2 0
5.2 3.2 0
5.6 3.2 0
6 3.2 0
6.4 3.2 0
6.8 3.2 0
7.2 3.2 0
7.6 3.2 0
8 3.2 0
8.4 3.2 0
8.8 3.2 0
9.2 3.2 0
9.6 3.2 0
10 3.2 0
10.4 3.2 0
10.8 3.2 0
11.2 3.2 0
11.6 3.2 0
12 3.2 0
12.4 3.2 0
12.8 3.2 0
13.2 3.2 0
13.6 3.2 0
14 3.2 0
14.4 3.2 0
14.8 3.2 0
15.2 3.2 0
15.6 3.2 0
16 3.2 0
16.4 3.2 0
16.8 3.2 0
17.2 3.2 0
17.6 3.2 0
18 3.2 0
18.4 3.2 0
18.8 3.2 0
19.2 3.2 0
19.6 3.2 0
20 3.2 0
0 3.6 0
0.4 3.6 0
0.8 3.6 0
1.2 3.6 0
1.6 3.6 0
2 3.6 0
2.4 3.6 0
2.8 3.6 0
3.2 3.6 0
3.6 3.6 0
4 3.6 0
4.4 3.6 0
4.8 3.6 0
5.2 3.6 0
5.6 3.6 0
6 3.6 0
6.4 3.6 0
6.8 3.6 0
7.2 3.6 0
7.6 3.6 0
8 3.6 0
8.4 3.6 0
8.8 3.6 0
9.2 3.6 0
9.6 3.6 0
10 3.6 0
10.4 3.6 0
10.8 3.6 0
11.2 3.6 0
11.6 3.6 0
12 3.6 0
12.4 3.6 0
12.8 3.6 0
13.2 3.6 0
13.6 3.6 0
14 3.6 0
14.4 3.6 0
14.8 3.6 0
15.2 3.6 0
15.6 3.6 0
16 3.6 0
16.4 3.6 0
16.8 3.6 0
17.2 3.6 0
17.6 3.6 0
18 3.6 0
18.4 3.6 0
18.8 3.6 0
19.2 3.6 0
19.6 3.6 0
20 3.6 0
0 4 0
0.4 4 0
0.8 4 0
1.2 4 0
1.6 4 0
2 4 0
2.4 4 0
2.8 4 0
3.2 4 0
3.6 4 0
4 4 0
4.4 4 0
4.8 4 0
5.2 4 0
5.6 4 0
6 4 0
6.4 4 0
6.8 4 0
7.2 4 0
7.6 4 0
8 4 0
8.4 4 0
8.8 4 0
9.2 4 0
9.6 4 0
10 4 0
10.4 4 0
10.8 4 0
11.2 4 0
11.6 4 0
12 4 0
12.4 4 0
12.8 4 0
13.2 4 0
13.6 4 0
14 4 0
14.4 4 0
14.8 4 0
15.2 4 0
15.6 4 0
16 4 0
16.4 4 0
16.8 4 0
17.2 4 0
17.6 4 0
18 4 0
18.4 4 0
18.8 4 0
19.2 4 0
19.6 4 0
20 4 0
0 4.4 0
0.4 4.4 0
0.8 4.4 0
1.2 4.4 0
1.6 4.4 0
2 4.4 0
2.4 4.4 0
2.8 4.4 0
3.2 4.4 0
3.6 4.4 0
4 4.4 0
4.4 4.4 0
4.8 4.4 0
5.2 4.4 0
5.6 4.4 0
6 4.4 0
6.4 4.4 0
6.8 4.4 0
7.2 4.4 0
7.6 4.4 0
8 4.4 0
8.4 4.4 0
8.8 4.4 0
9.2 4.4 0
9.6 4.4 0
10 4.4 0
10.4 4.4 0
10.8 4.4 0
11.2 4.4 0
11.6 4.4 0
12 4.4 0
12.4 4.4 0
12.8 4.4 0
13.2 4.4 0
13.6 4.4 0
14 4.4 0
14.4 4.4 0
14.8 4.4 0
15.2 4.4 0
15.6 4.4 0
16 4.4 0
16.4 4.4 0
16.8 4.4 0
17.2 4.4 0
17.6 4.4 0
18 4.4 0
18.4 4.4 0
18.8 4.4 0
19.2 4.4 0
19.6 4.4 0
20 4.4 0
0 4.8 0
0.4 4.8 0
0.8 4.8 0
1.2 4.8 0
1.6 4.8 0
2 4.8 0
2.4 4.8 0
2.8 4.8 0
3.2 4.8 0
3.6 4.8 0
4 4.8 0
4.4 4.8 0
4.8 4.8 0
5.2 4.8 0
5.6 4.8 0
6 4.8 0
6.4 4.8 0
6.8 4.8 0
7.2 4.8 0
7.6 4.8 0
8 4.8 0
8.4 4.8 0
8.8 4.8 0
9.2 4.8 0
9.6 4.8 0
10 4.8 0
10.4 4.8 0
10.8 4.8 0
11.2 4.8 0
11.6 4.8 0
12 4.8 0
12.4 4.8 0
12.8 4.8 0
13.2 4.8 0
13.6 4.8 0
14 4.8 0
14.4 4.8 0
14.8 4.8 0
15.2 4.8 0
15.6 4.8 0
16 4.8 0
16.4 4.8 0
16.8 4.8 0
17.2 4.8 0
17.6 4.8 0
18 4.8 0
18.4 4.8 0
18.8 4.8 0
19.2 4.8 0
19.6 4.8 0
20 4.8 0
0 5.2 0
0.4 5.2 0
0.8 5.2 0
1.2 5.2 0
1.6 5.2 0
2 5.2 0
2.4 5.2 0
2.8 5.2 0
3.2 5.2 0
3.6 5.2 0
4 5.2 0
4.4 5.2 0
4.8 5.2 0
5.2 5.2 0
5.6 5.2 0
6 5.2 0
6.4 5.2 0
6.8 5.2 0
7.2 5.2 0
7.6 5.2 0
8 5.2 0
8.4 5.2 0
8.8 5.2 0
9.2 5.2 0
9.6 5.2 0
10 5.2 0
10.4 5.2 0
10.8 5.2 0
11.2 5.2 0
11.6 5.2 0
12 5.2 0
12.4 5.2 0
12.8 5.2 0
13.2 5.2 0
13.6 5.2 0
14 5.2 0
14.4 5.2 0
14.8 5.2 0
15.2 5.2 0
15.6 5.2 0
16 5.2 0
16.4 5.2 0
16.8 5.2 0
17.2 5.2 0
17.6 5.2 0
18 5.2 0
18.4 5.2 0
18.8 5.2 0
19.2 5.2 0
19.6 5.2 0
20 5.2 0
0 5.6 0
0.4 5.6 0
0.8 5.6 0
1.2 5.6 0
1.6 5.6 0
2 5.6 0
2.4 5.6 0
2.8 5.6 0
3.2 5.6 0
3.6 5.6 0
4 5.6 0
4.4 5.6 0
4.8 5.6 0
5.2 5.6 0
5.6 5.6 0
6 5.6 0
6.4 5.6 0
6.8 5.6 0
7.2 5.6 0
7.6 5.6 0
8 5.6 0
8.4 5.6 0
8.8 5.6 0
9.2 5.6 0
9.6 5.6 0
10 5.6 0
10.4 5.6 0
10.8 5.6 0
11.2 5.6 0
11.6 5.6 0
12 5.6 0
12.4 5.6 0
12.8 5.6 0
13.2 5.6 0
13.6 5.6 0
14 5.6 0
14.4 5.6 0
14.8 5.6 0
15.2 5.6 0
15.6 5.6 0
16 5.6 0
16.4 5.6 0
16.8 5.6 0
17.2 5.6 0
17.6 5.6 0
18 5.6 0
18.4 5.6 0
18.8 5.6 0
19.2 5.6 0
19.6 5.6 0
20 5.6 0
0 6 0
0.4 6 0
0.8 6 0
1.2 6 0
1.6 6 0
2 6 0
2.4 6 0
2.8 6 0
3.2 6 0
3.6 6 0
4 6 0
4.4 6 0
4.8 6 0
5.2 6 0
5.6 6 0
6 6 0
6.4 6 0
6.8 6 0
7.2 6 0
7.6 6 0
8 6 0
8.4 6 0
8.8 6 0
9.2 6 0
9.6 6 0
10 6 0
10.4 6 0
10.8 6 0
11.2 6 0
11.6 6 0
12 6 0
12.4 6 0
12.8 6 0
13.2 6 0
13.6 6 0
14 6 0
14.4 6 0
14.8 6 0
15.2 6 0
15.6 6 0
16 6 0
16.4 6 0
16.8 6 0
17.2 6 0
17.6 6 0
18 6 0
18.4 6 0
18.8 6 0
19.2 6 0
19.6 6 0
20 6 0
0 6.4 0
0.4 6.4 0
0.8 6.4 0
1.2 6.4 0
1.6 6.4 0
2 6.4 0
2.4 6.4 0
2.8 6.4 0
3.2 6.4 0
3.6 6.4 0
4 6.4 0
4.4 6.4 0
4.8 6.4 0
5.2 6.4 0
5.6 6.4 0
6 6.4 0
6.4 6.4 0
6.8 6.4 0
7.2 6.4 0
7.6 6.4 0
8 6.4 0
8.4 6.4 0
8.8 6.4 0
9.2 6.4 0
9.6 6.4 0
10 6.4 0
10.4 6.4 0
10.8 6.4 0
11.2 6.4 0
11.6 6.4 0
12 6.4 0
12.4 6.4 0
12.8 6.4 0
13.2 6.4 0
13.6 6.4 0
14 6.4 0
14.4 6.4 0
14.8 6.4 0
15.2 6.4 0
15.6 6.4 0
16 6.4 0
16.4 6.4 0
16.8 6.4 0
17.2 6.4 0
17.6 6.4 0
18 6.4 0
18.4 6.4 0
18.8 6.4 0
19.2 6.4 0
19.6 6.4 0
20 6.4 0
0 6.8 0
0.4 6.8 0
0.8 6.8 0
1.2 6.8 0
1.6 6.8 0
2 6.8 0
2.4 6.8 0
2.8 6.8 0
3.2 6.8 0
3.6 6.8 0
4 6.8 0
4.4 6.8 0
4.8 6.8 0
5.2 6.8 0
5.6 6.8 0
6 6.8 0
6.4 6.8 0
6.8 6.8 0
7.2 6.8 0
7.6 6.8 0
8 6.8 0
8.4 6.8 0
8.8 6.8 0
9.2 6.8 0
9.6 6.8 0
10 6.8 0
10.4 6.8 0
10.8 6.8 0
11.2 6.8 0
11.6 6.8 0
12 6.8 0
12.4 6.8 0
12.8 6.8 0
13.2 6.8 0
13.6 6.8 0
14 6.8 0
14.4 6.8 0
14.8 6.8 0
15.2 6.8 0
15.6 6.8 0
16 6.8 0
16.4 6.8 0
16.8 6.8 0
17.2 6.8 0
17.6 6.8 0
18 6.8 0
18.4 6.8 0
18.8 6.8 0
19.2 6.8 0
19.6 6.8 0
20 6.8 0
0 7.2 0
0.4 7.2 0
0.8 7.2 0
1.2 7.2 0
1.6 7.2 0
2 7.2 0
2.4 7.2 0
2.8 7.2 0
3.2 7.2 0
3.6 7.2 0
4 7.2 0
4.4 7.2 0
4.8 7.2 0
5.2 7.2 0
5.6 7.2 0
6 7.2 0
6.4 7.2 0
6.8 7.2 0
7.2 7.2 0
7.6 7.2 0
8 7.2 0
8.4 7.2 0
8.8 7.2 0
9.2 7.2 0
9.6 7.2 0
10 7.2 0
10.4 7.2 0
10.8 7.2 0
11.2 7.2 0
11.6 7.2 0
12 7.2 0
12.4 7.2 0
12.8 7.2 0
13.2 7.2 0
13.6 7.2 0
14 7.2 0
14.4 7.2 0
14.8 7.2 0
15.2 7.2 0
15.6 7.2 0
16 7.2 0
16.4 7.2 0
16.8 7.2 0
17.2 7.2 0
17.6 7.2 0
18 7.2 0
18.4 7.2 0
18.8 7.2 0
19.2 7.2 0
19.6 7.2 0
20 7.2 0
0 7.6 0
0.4 7.6 0
0.8 7.6 0
1.2 7.6 0
1.6 7.6 0
2 7.6 0
2.4 7.6 0
2.8 7.6 0
3.2 7.6 0
3.6 7.6 0
4 7.6 0
4.4 7.6 0
4.8 7.6 0
5.2 7.6 0
5.6 7.6 0
6 7.6 0
6.4 7.6 0
6.8 7.6 0
7.2 7.6 0
7.6 7.6 0
8 7.6 0
8.4 7.6 0
8.8 7.6 0
9.2 7.6 0
9.6 7.6 0
10 7.6 0
10.4 7.6 0
10.8 7.6 0
11.2 7.6 0
11.6 7.6 0
12 7.6 0
12.4 7.6 0
12.8 7.6 0
13.2 7.6 0
13.6 7.6 0
14 7.6 0
14.4 7.6 0
14.8 7.6 0
15.2 7.6 0
15.6 7.6 0
16 7.6 0
16.4 7.6 0
16.8 7.6 0
17.2 7.6 0
17.6 7.6 0
18 7.6 0
18.4 7.6 0
18.8 7.6 0
19.2 7.6 0
19.6 7.6 0
20 7.6 0
0 8 0
0.4 8 0
0.8 8 0
1.2 8 0
1.6 8 0
2 8 0
2.4 8 0
2.8 8 0
3.2 8 0
3.6 8 0
4 8 0
4.4 8 0
4.8 8 0
5.2 8 0
5.6 8 0
6 8 0
6.4 8 0
6.8 8 0
7.2 8 0
7.6 8 0
8 8 0
8.4 8 0
8.8 8 0
9.2 8 0
9.6 8 0
10 8 0
10.4 8 0
10.8 8 0
11.2 8 0
11.6 8 0
12 8 0
12.4 8 0
12.8 8 0
13.2 8 0
13.6 8 0
14 8 0
14.4 8 0
14.8 8 0
15.2 8 0
15.6 8 0
16 8 0
16.4 8 0
16.8 8 0
17.2 8 0
17.6 8 0
18 8 0
18.4 8 0
18.8 8 0
19.2 8 0
19.6 8 0
20 8 0
0 8.4 0
0.4 8.4 0
0.8 8.4 0
1.2 8.4 0
1.6 8.4 0
2 8.4 0
2.4 8.4 0
2.8 8.4 0
3.2 8.4 0
3.6 8.4 0
4 8.4 0
4.4 8.4 0
4.8 8.4 0
5.2 8.4 0
5.6 8.4 0
6 8.4 0
6.4 8.4 0
6.8 8.4 0
7.2 8.4 0
7.6 8.4 0
8 8.4 0
8.4 8.4 0
8.8 8.4 0
9.2 8.4 0
9.6 8.4 0
10 8.4 0
10.4 8.4 0
10.8 8.4 0
11.2 8.4 0
11.6 8.4 0
12 8.4 0
12.4 8.4 0
12.8 8.4 0
13.2 8.4 0
13.6 8.4 0
14 8.4 0
14.4 8.4 0
14.8 8.4 0
15.2 8.4 0
15.6 8.4 0
16 8.4 0
16.4 8.4 0
16.8 8.4 0
17.2 8.4 0
17.6 8.4 0
18 8.4 0
18.4 8.4 0
18.8 8.4 0
19.2 8.4 0
19.6 8.4 0
20 8.4 0
0 8.8 0
0.4 8.8 0
0.8 8.8 0
1.2 8.8 0
1.6 8.8 0
2 8.8 0
2.4 8.8 0
2.8 8.8 0
3.2 8.8 0
3.6 8.8 0
4 8.8 0
4.4 8.8 0
4.8 8.8 0
5.2 8.8 0
5.6 8.8 0
6 8.8 0
6.4 8.8 0
6.8 8.8 0
7.2 8.8 0
7.6 8.8 0
8 8.8 0
8.4 8.8 0
8.8 8.8 0
9.2 8.8 0
9.6 8.8 0
10 8.8 0
10.4 8.8 0
10.8 8.8 0
11.2 8.8 0
11.6 8.8 0
12 8.8 0
12.4 8.8 0
12.8 8.8 0
13.2 8.8 0
13.6 8.8 0
14 8.8 0
14.4 8.8 0
14.8 8.8 0
15.2 8.8 0
15.6 8.8 0
16 8.8 0
16.4 8.8 0
16.8 8.8 0
17.2 8.8 0
17.6 8.8 0
18 8.8 0
18.4 8.8 0
18.8 8.8 0
19.2 8.8 0
19.6 8.8 0
20 8.8 0
0 9.2 0
0.4 9.2 0
0.8 9.2 0
1.2 9.2 0
1.6 9.2 0
2 9.2 0
2.4 9.2 0
2.8 9.2 0
3.2 9.2 0
3.6 9.2 0
4 9.2 0
4.4 9.2 0
4.8 9.2 0
5.2 9.2 0
5.6 9.2 0
6 9.2 0
6.4 9.2 0
6.8 9.2 0
7.2 9.2 0
7.6 9.2 0
8 9.2 0
8.4 9.2 0
8.8 9.2 0
9.2 9.2 0
9.6 9.2 0
10 9.2 0
10.4 9.2 0
10.8 9.2 0
11.2 9.2 0
11.6 9.2 0
12 9.2 0
12.4 9.2 0
12.8 9.2 0
13.2 9.2 0
13.6 9.2 0
14 9.2 0
14.4 9.2 0
14.8 9.2 0
15.2 9.2 0
15.6 9.2 0
16 9.2 0
16.4 9.2 0
16.8 9.2 0
17.2 9.2 0
17.6 9.2 0
18 9.2 0
18.4 9.2 0
18.8 9.2 0
19.2 9.2 0
19.6 9.2 0
20 9.2 0
0 9.6 0
0.4 9.6 0
0.8 9.6 0
1.2 9.6 0
1.6 9.6 0
2 9.6 0
2.4 9.6 0
2.8 9.6 0
3.2 9.6 0
3.6 9.6 0
4 9.6 0
4.4 9.6 0
4.8 9.6 0
5.2 9.6 0
5.6 9.6 0
6 9.6 0
6.4 9.6 0
6.8 9.6 0
7.2 9.6 0
7.6 9.6 0
8 9.6 0
8.4 9.6 0
8.8 9.6 0
9.2 9.6 0
9.6 9.6 0
10 9.6 0
10.4 9.6 0
10.8 9.6 0
11.2 9.6 0
11.6 9.6 0
12 9.6 0
12.4 9.6 0
12.8 9.6 0
13.2 9.6 0
13.6 9.6 0
14 9.6 0
14.4 9.6 0
14.8 9.6 0
15.2 9.6 0
15.6 9.6 0
16 9.6 0
16.4 9.6 0
16.8 9.6 0
17.2 9.6 0
17.6 9.6 0
18 9.6 0
18.4 9.6 0
18.8 9.6 0
19.2 9.6 0
19.6 9.6 0
20 9.6 0
0 10 0
0.4 10 0
0.8 10 0
1.2 10 0
1.6 10 0
2 10 0
2.4 10 0
2.8 10 0
3.2 10 0
3.6 10 0
4 10 0
4.4 10 0
4.8 10 0
5.2 10 0
5.6 10 0
6 10 0
6.4 10 0
6.8 10 0
7.2 10 0
7.6 10 0
8 10 0
8.4 10 0
8.8 10 0
9.2 10 0
9.6 10 0
10 10 0
10.4 10 0
10.8 10 0
11.2 10 0
11.6 10 0
12 10 0
12.4 10 0
12.8 10 0
13.2 10 0
13.6 10 0
14 10 0
14.4 10 0
14.8 10 0
15.2 10 0
15.6 10 0
16 10 0
16.4 10 0
16.8 10 0
17.2 10 0
17.6 10 0
18 10 0
18.4 10 0
18.8 10 0
19.2 10 0
19.6 10 0
20 10 0

CELL_DATA 1250
SCALARS phi float
LOOKUP_TABLE default 
4.711
4.711
4.711
4.711
4.711
4.711
4.711
4.711
4.711
4.711
4.711
4.711
4.711
4.711
4.711
4.711
4.711
4.711
4.711
4.711
4.711
4.711
4.711
4.711
4.711
4.711
4.711
4.711
4.711
4.711
4.711
4.711
4.711
4.711
4.711
4.711
4.711
4.711
4.711
4.711
4.711
4.711
4.711
4.711
4.711
4.711
4.711
4.711
4.711
4.711
4.711
4.711
4.711
4.711
4.711
4.711
4.711
4.711
4.711
4.711
4.711
4.711
4.711
4.711
4.711
4.711
4.711
4.711
4.711
4.711
4.711
4.711
4.711
4.711
4.711
4.711
4.711
4.711
4.711
4.711
4.711
4.711
4.711
4.711
4.711
4.711
4.711
4.711
4.711
4.711
4.711
4.711
4.711
4.711
4.711
4.711
4.711
4.711
4.711
4.711
4.711
4.711
4.711
4.711
4.711
4.711
4.711
4.711
4.711
4.711
4.711
4.711
4.711
4.711
4.711
4.711
4.711
4.711
4.711
4.711
4.711
4.711
4.711
4.711
4.711
4.711
4.711
4.711
4.711
4.711
4.711
4.711
4.711
4.711
4.711
4.711
4.711
4.711
4.711
4.711
4.711
4.711
4.711
4.711
4.711
4.711
4.711
4.711
4.711
4.711
4.711
4.711
4.711
4.711
4.711
4.711
4.711
4.711
4.711
4.711
4.711
4.711
4.711
4.711
4.711
4.711
4.711
4.711
4.711
4.711
4.711
4.711
4.711
4.711
4.711
4.711
4.711
4.711
4.711
4.711
4.711
4.711
4.711
4.711
4.711
4.711
4.711
4.711
4.711
4.711
4.711
4.711
4.711
4.711
4.711
4.711
4.711
4.711
4.711
4.711
4.711
4.711
4.711
4.711
4.711
4.711
4.711
4.711
4.711
4.711
4.711
4.711
4.711
4.711
4.711
4.711
4.711
4.711
4.711
4.711
4.711
4.711
4.711
4.711
4.711
4.711
4.711
4.711
4.711
4.711
4.711
4.711
4.711
4.711
4.711
4.711
4.711
4.711
4.711
4.711
4.711
4.711
4.711
4.711
4.711
4.711
4.711
4.711
4.711
4.711
4.711
4.711
4.711
4.711
4.711
4.711
4.711
4.711
4.711
4.711
4.711
4.711
4.711
4.711
4.711
4.711
4.711
4.711
4.711
4.711
4.711
4.711
4.711
4.711
4.711
4.711
4.711
4.711
4.711
4.711
4.711
4.711
4.711
4.711
4.711
4.711
4.711
4.711
4.711
4.711
4.711
4.711
4.711
4.711
4.711
4.711
4.711
4.711
4.711
4.711
4.711
4.711
4.711
4.711
4.711
4.711
4.711
4.711
4.711
4.711
4.711
4.711
4.711
4.711
4.711
4.711
4.711
4.711
4.711
4.711
4.711
4.711
4.711
4.711
4.711
4.711
4.711
4.711
4.711
4.711
4.711
4.711
4.711
4.711
4.711
4.711
4.711
4.711
4.711
4.711
4.711
4.711
4.711
4.711
4.711
4.711
4.711
4.711
4.711
4.711
4.711
4.711
4.711
4.711
4.711
4.711
4.711
4.711
4.711
4.711
4.711
4.711
4.711
4.711
4.711
4.711
4.711
4.711
4.711
4.711
4.711
4.711
4.711
4.711
4.711
4.711
4.711
4.711
4.711
4.711
4.711
4.711
4.711
4.711
4.711
4.711
4.711
4.711
4.711
4.711
4.711
4.711
4.711
4.711
4.711
4.711
4.711
4.711
4.711
4.711
4.711
4.711
4.711
4.711
4.711
4.711
4.711
4.711
4.711
4.711
4.711
4.711
4.711
4.711
4.711
4.711
4.711
4.711
4.711
4.711
4.711
4.711
4.711
4.711
4.711
4.711
4.711
4.711
4.711
4.711
4.711
4.711
4.711
4.711
4.711
4.711
4.711
4.711
4.711
4.711
4.711
4.711
4.711
4.711
4.711
4.711
4.711
4.711
4.711
4.711
4.711
4.711
4.711
4.711
4.711
4.711
4.711
4.711
4.711
4.711
4.711
4.711
4.711
4.711
4.711
4.711
4.711
4.711
4.711
4.711
4.711
4.711
4.711
4.711
4.711
4.711
4.711
4.711
4.711
4.711
4.711
4.711
4.711
4.711
4.711
4.711
4.711
4.711
4.711
4.711
4.711
4.711
4.711
4.711
4.711
4.711
4.711
4.711
4.711
4.711
4.711
4.711
4.711
4.711
4.711
4.711
4.711
4.711
4.711
4.711
4.711
4.711
4.711
4.711
4.711
4.711
4.711
4.711
4.711
4.711
4.711
4.711
4.711
4.711
4.711
4.711
4.711
4.711
4.711
4.711
4.711
4.711
4.711
4.711
4.711
4.711
4.711
4.711
4.711
4.711
4.711
4.711
4.711
4.711
4.711
4.711
4.711
4.711
4.711
4.711
4.711
4.711
4.711
4.711
4.711
4.711
4.711
4.711
4.711
4.711
4.711
4.711
4.711
4.711
4.711
4.711
4.711
4.711
4.711
4.711
4.711
4.711
4.711
4.711
4.711
4.711
4.711
4.711
4.711
4.711
4.711
4.711
4.711
4.711
4.711
4.711
4.711
4.711
4.711
4.711
4.711
4.711
4.711
4.711
4.711
4.711
4.711
4.711
4.711
4.711
4.711
4.711
4.711
4.711
4.711
4.711
4.711
4.711
4.711
4.711
4.711
4.711
4.711
4.711
4.711
4.711
4.711
4.711
4.711
4.711
4.711
4.711
4.711
4.711
4.711
4.711
4.711
4.711
4.711
4.711
4.711
4.711
4.711
4.711
4.711
4.711
4.711
4.711
4.711
4.711
4.711
4.711
4.711
4.711
4.711
4.711
4.711
4.711
4.711
4.711
4.711
4.711
4.711
4.711
4.711
4.711
4.711
4.711
4.711
4.711
4.711
4.711
4.711
4.711
4.711
4.711
4.711
4.711
4.711
4.711
4.711
4.711
4.711
4.711
4.711
4.711
4.711
4.711
4.711
4.711
4.711
4.711
4.711
4.711
4.711
4.711
4.711
4.711
4.711
4.711
4.711
4.711
4.711
4.711
4.711
4.711
4.711
4.711
4.711
4.711
4.711
4.711
4.711
4.711
4.711
4.711
4.711
4.711
4.711
4.711
4.711
4.711
4.711
4.711
4.711
4.711
4.711
4.711
4.711
4.711
4.711
4.711
4.711
4.711
4.711
4.711
4.711
4.711
4.711
4.711
4.711
4.711
4.711
4.711
4.711
4.711
4.711
4.711
4.711
4.711
4.711
4.711
4.711
4.711
4.711
4.711
4.711
4.711
4.711
4.711
4.711
4.711
4.711
4.711
4.711
4.711
4.711
4.711
4.711
4.711
4.711
4.711
4.711
4.711
4.711
4.711
4.711
4.711
4.711
4.711
4.711
4.711
4.711
4.711
4.711
4.711
4.711
4.711
4.711
4.711
4.711
4.711
4.711
4.711
4.711
4.711
4.711
4.711
4.711
4.711
4.711
4.711
4.711
4.711
4.711
4.711
4.711
4.711
4.711
4.711
4.711
4.711
4.711
4.711
4.711
4.711
4.711
4.711
4.711
4.711
4.711
4.711
4.711
4.711
4.711
4.711
4.711
4.711
4.711
4.711
4.711
4.711
4.711
4.711
4.711
4.711
4.711
4.711
4.711
4.711
4.711
4.711
4.711
4.711
4.711
4.711
4.711
4.711
4.711
4.711
4.711
4.711
4.711
4.711
4.711
4.711
4.711
4.711
4.711
4.711
4.711
4.711
4.711
4.711
4.711
4.711
4.711
4.711
4.711
4.711
4.711
4.711
4.711
4.711
4.711
4.711
4.711
4.711
4.711
4.711
4.711
4.711
4.711
4.711
4.711
4.711
4.711
4.711
4.711
4.711
4.711
4.711
4.711
4.711
4.711
4.711
4.711
4.711
4.711
4.711
4.711
4.711
4.711
4.711
4.711
4.711
4.711
4.711
4.711
4.711
4.711
4.711
4.711
4.711
4.711
4.711
4.711
4.711
4.711
4.711
4.711
4.711
4.711
4.711
4.711
4.711
4.711
4.711
4.711
4.711
4.711
4.711
4.711
4.711
4.711
4.711
4.711
4.711
4.711
4.711
4.711
4.711
4.711
4.711
4.711
4.711
4.711
4.711
4.711
4.711
4.711
4.711
4.711
4.711
4.711
4.711
4.711
4.711
4.711
4.711
4.711
4.711
4.711
4.711
4.711
4.711
4.711
4.711
4.711
4.711
4.711
4.711
4.711
4.711
4.711
4.711
4.711
4.711
4.711
4.711
4.711
4.711
4.711
4.711
4.711
4.711
4.711
4.711
4.711
4.711
4.711
4.711
4.711
4.711
4.711
4.711
4.711
4.711
4.711
4.711
4.711
4.711
4.711
4.711
4.711
4.711
4.711
4.711
4.711
4.711
4.711
4.711
4.711
4.711
4.711
4.711
4.711
4.711
4.711
4.711
4.711
4.711
4.711
4.711
4.711
4.711
4.711
4.711
4.711
4.711
4.711
4.711
4.711
4.711
4.711
4.711
4.711
4.711
4.711
4.711
4.711
4.711
4.711
4.711
4.711
4.711
4.711
4.711
4.711
4.711
4.711
4.711
4.711
4.711
4.711
4.711
4.711
4.711
4.711
4.711
4.711
4.711
4.711
4.711
4.711
4.711
4.711
4.711
4.711
4.711
4.711
4.711
4.711
4.711
4.711
4.711
4.711
4.711
4.711
4.711
4.711
4.711
4.711
4.711
4.711
4.711
4.711
4.711
4.711
4.711
4.711
4.711
4.711
4.711
4.711
4.711
4.711
4.711
4.711
4.711
4.711
4.711
4.711
4.711
4.711
4.711
4.711
4.711
4.711
4.711
4.711
4.711
4.711
4.711
4.711
4.711
4.711
4.711
4.711
4.711
4.711
4.711
4.711
4.711
4.711
4.711
4.711
4.711
4.711
4.711
4.711
4.711
4.711
4.711
4.711
4.711
4.711
4.711
4.711
4.711
4.711
4.711
4.711
4.711
4.711
4.711
4.711
4.711
4.711
4.711
4.711
4.711
4.711
4.711
4.711
4.711
4.711
4.711
4.711
4.711
4.711
4.711
4.711
4.711
4.711
4.711
4.711
4.711
4.711
4.711
4.711
4.711
4.711
4.711
4.711
4.711
4.711
4.711
4.711
4.711
4.711
4.711
4.711
4.711
4.711
4.711
4.711
4.711
4.711
4.711
4.711
4.711
4.711
4.711
4.711
4.711
4.711
4.711
4.711
4.711
4.711
4.711
4.711
4.711
4.711
4.711
4.711
4.711
4.711
4.711
4.711
4.711
4.711
4.711
4.711
4.711
4.711
4.711
4.711
4.711
4.711
4.711
4.711
4.711
4.711
4.711
4.711
4.711
4.711
4.711
4.711
4.711
4.711
4.711
4.711
4.711
4.711
4.711
4.711
4.711
4.711
4.711
4.711
4.711
4.711
4.711
4.711
4.711
4.711
4.711
4.711
4.711
4.711
4.711
4.711
4.711
4.711
4.711
4.711
4.711

SCALARS p float
LOOKUP_TABLE default 
-4.92906
-4.92905
-6.82868
-8.63438
-10.4017
-12.1332
-13.8103
-15.4022
-16.87
-18.1721
-19.2707
-20.1381
-20.7603
-21.1373
-21.2799
-21.2072
-20.943
-20.5123
-19.9396
-19.2471
-18.4546
-17.5797
-16.6375
-15.6417
-14.604
-13.5351
-12.4441
-11.3393
-10.2276
-9.11545
-8.00781
-6.90874
-5.82088
-4.74549
-3.68235
-2.63001
-1.58615
-0.548215
0.48577
1.51639
2.54201
3.55826
4.55771
5.53002
6.46238
7.34029
8.14829
8.87066
9.49201
10
-4.92905
-4.92905
-6.82868
-8.63438
-10.4017
-12.1332
-13.8103
-15.4022
-16.87
-18.1721
-19.2707
-20.1381
-20.7603
-21.1373
-21.2799
-21.2072
-20.943
-20.5123
-19.9396
-19.2471
-18.4546
-17.5797
-16.6375
-15.6417
-14.604
-13.5351
-12.4441
-11.3393
-10.2276
-9.11545
-8.00781
-6.90874
-5.82088
-4.74549
-3.68235
-2.63001
-1.58615
-0.548215
0.48577
1.51639
2.54201
3.55826
4.55771
5.53002
6.46238
7.34029
8.14829
8.87066
9.49201
10
-5.42041
-5.42041
-6.82889
-8.48093
-10.2471
-12.0721
-13.9038
-15.6797
-17.329
-18.7799
-19.9735
-20.8745
-21.4731
-21.7795
-21.8179
-21.6208
-21.2244
-20.6648
-19.9747
-19.1823
-18.3104
-17.3772
-16.3965
-15.3792
-14.3341
-13.2684
-12.1885
-11.1001
-10.0086
-8.91867
-7.8347
-6.7601
-5.6972
-4.64705
-3.60926
-2.58213
-1.56302
-0.548918
0.462736
1.47314
2.48129
3.48334
4.47229
5.43807
6.36803
7.2478
8.06231
8.79716
9.44063
10
-5.25718
-5.25718
-6.35001
-7.90005
-9.7774
-11.9041
-14.1727
-16.4473
-18.5764
-20.411
-21.8417
-22.8239
-23.3658
-23.5063
-23.3006
-22.8109
-22.1005
-21.2291
-20.2489
-19.2017
-18.1187
-17.0206
-15.9202
-14.824
-13.7347
-12.6528
-11.5782
-10.5109
-9.45127
-8.40042
-7.3597
-6.33048
-5.31369
-4.30943
-3.31674
-2.33355
-1.35695
-0.383664
0.589145
1.56303
2.53743
3.50899
4.47128
5.41484
6.32772
7.19639
8.00693
8.74678
9.4071
10
-4.02234
-4.02234
-4.9805
-6.56498
-8.76143
-11.5429
-14.7027
-17.9633
-21.0194
-23.5617
-25.385
-26.4575
-26.8468
-26.6551
-25.9919
-24.9676
-23.6892
-22.2552
-20.7496
-19.238
-17.7659
-16.3601
-15.0319
-13.7813
-12.6011
-11.4807
-10.4086
-9.37446
-8.36964
-7.38773
-6.42421
-5.476
-4.5408
-3.61653
-2.70088
-1.79106
-0.883935
0.0236886
0.934432
1.84964
2.76867
3.68834
4.60268
5.50304
6.37857
7.21707
8.00619
8.73489
9.39546
10
-1.41338
-1.41338
-2.30392
-3.99774
-6.74503
-10.751
-15.528
-20.5366
-25.2175
-28.923
-31.265
-32.3344
-32.3632
-31.5689
-30.1401
-28.2518
-26.0717
-23.7543
-21.4304
-19.2001
-17.1294
-15.2524
-13.5771
-12.0926
-10.7764
-9.60048
-8.53607
-7.5568
-6.64018
-5.76821
-4.92712
-4.10671
-3.29946
-2.4997
-1.70289
-0.905119
-0.102964
0.70645
1.52511
2.35365
3.19091
4.03354
4.87591
5.71019
6.52686
7.31536
8.06494
8.76554
9.40854
10
2.79078
2.79078
2.08353
0.478518
-2.87786
-9.11352
-16.6534
-24.5688
-32.0122
-37.5331
-40.3339
-41.0697
-40.3549
-38.5627
-35.9564
-32.7802
-29.2791
-25.6854
-22.1962
-18.9581
-16.0623
-13.5489
-11.4165
-9.635
-8.15729
-6.92931
-5.89727
-5.01224
-4.23254
-3.52442
-2.86169
-2.2247
-1.59913
-0.97464
-0.34389
0.298364
0.955779
1.63068
2.32408
3.03558
3.76315
4.50308
5.24994
5.9968
6.73557
7.45747
8.15353
8.81477
9.43164
10
8.54926
8.54926
8.44119
7.81713
4.67112
-6.09028
-18.015
-30.3018
-42.428
-50.7326
-53.2351
-52.8685
-50.8737
-47.6427
-43.4172
-38.4906
-33.2079
-27.912
-22.893
-18.3593
-14.4304
-11.1458
-8.48397
-6.38214
-4.75572
-3.51313
-2.56626
-1.83663
-1.25823
-0.778061
-0.355236
0.0406921
0.431611
0.832701
1.25406
1.702
2.18004
2.68957
3.23029
3.80041
4.39685
5.01533
5.6505
6.29622
6.94576
7.59218
8.22856
8.84803
9.44284
10
15.2138
15.2138
16.4138
18.9495
20.5726
-2.14364
-19.2063
-35.8189
-55.4736
-68.4084
-68.045
-65.6384
-62.2181
-57.5248
-51.5711
-44.6871
-37.364
-30.1078
-23.3406
-17.3524
-12.2948
-8.20079
-5.01592
-2.63127
-0.91207
0.280889
1.07729
1.58979
1.91128
2.11507
2.25688
2.37748
2.50554
2.66025
2.85362
3.09232
3.37916
3.71415
4.09537
4.51948
4.98215
5.47834
6.00261
6.54926
7.11259
7.68713
8.26792
8.85089
9.43316
10
21.1974
21.1974
23.9056
31.7536
20.5726
-2.14364
-19.2063
-35.8189
-55.4736
-84.8847
-77.2694
-73.5636
-69.9222
-64.7724
-57.8619
-49.5883
-40.6322
-31.7099
-23.4155
-16.1487
-10.1098
-5.33219
-1.73067
0.850293
2.59627
3.69374
4.31237
4.59648
4.66281
4.60192
4.48148
4.35016
4.24144
4.17704
4.16985
4.22628
4.34811
4.53397
4.78039
5.08259
5.43507
5.83204
6.26769
6.73638
7.23284
7.7523
8.29082
8.84608
9.41931
10
24.5575
24.5575
26.5764
31.7536
31.7536
0
0
0
-84.8847
-84.8847
-77.0435
-74.7259
-72.0774
-67.4117
-60.5279
-51.8595
-42.1899
-32.3904
-23.2076
-15.1548
-8.49626
-3.28598
0.57185
3.26127
5.00266
6.01578
6.49819
6.61582
6.50118
6.25593
5.95518
5.65232
5.38358
5.17204
5.03094
4.96637
4.97942
5.06777
5.22697
5.45131
5.7345
6.07016
6.45207
6.87438
7.33172
7.8192
8.33261
8.8689
9.42795
10
25.6446
25.6446
26.091
26.091
0
0
0
0
0
-73.3738
-73.3738
-73.2002
-71.1521
-66.7809
-60.1048
-51.5581
-41.9015
-32.0079
-22.653
-14.3967
-7.54951
-2.19688
1.74427
4.46086
6.18444
7.14777
7.55987
7.59552
7.39371
7.0606
6.67434
6.29026
5.94577
5.66451
5.45993
5.33806
5.29974
5.34233
5.46099
5.64963
5.90164
6.21032
6.56919
6.97216
7.41357
7.88812
8.39069
8.91602
9.45802
10
25.9055
25.9055
26.0301
26.0301
0
0
0
0
0
-71.8948
-71.8948
-72.0344
-70.1809
-65.9398
-59.3705
-50.9227
-41.3558
-31.5429
-22.2589
-14.0542
-7.23002
-1.87859
2.06726
4.78343
6.49877
7.44751
7.84092
7.85562
7.63189
7.2768
6.86911
6.46459
6.10089
5.80184
5.58097
5.44433
5.39275
5.42355
5.53183
5.71144
5.95571
6.25783
6.61127
7.00984
7.44774
7.91948
8.41947
8.94128
9.47534
10
25.6446
25.6446
26.091
26.091
0
0
0
0
0
-73.3738
-73.3738
-73.2002
-71.1521
-66.7809
-60.1048
-51.5581
-41.9015
-32.0079
-22.653
-14.3967
-7.54951
-2.19688
1.74427
4.46086
6.18444
7.14777
7.55987
7.59552
7.39371
7.0606
6.67434
6.29026
5.94577
5.66451
5.45993
5.33806
5.29974
5.34233
5.46099
5.64963
5.90164
6.21032
6.56919
6.97216
7.41357
7.88812
8.39069
8.91602
9.45802
10
24.5575
24.5575
26.5764
31.7536
31.7536
0
0
0
-84.8847
-84.8847
-77.0435
-74.7259
-72.0774
-67.4117
-60.5279
-51.8595
-42.1899
-32.3904
-23.2076
-15.1548
-8.49626
-3.28598
0.57185
3.26127
5.00266
6.01578
6.49819
6.61582
6.50118
6.25593
5.95518
5.65232
5.38358
5.17204
5.03094
4.96637
4.97942
5.06777
5.22697
5.45131
5.7345
6.07016
6.45207
6.87438
7.33172
7.8192
8.33261
8.8689
9.42795
10
21.1974
21.1974
23.9056
31.7536
20.5726
-2.14364
-19.2063
-35.8189
-55.4736
-84.8847
-77.2694
-73.5636
-69.9222
-64.7724
-57.8619
-49.5883
-40.6322
-31.7099
-23.4155
-16.1487
-10.1098
-5.33219
-1.73067
0.850293
2.59627
3.69374
4.31237
4.59648
4.66281
4.60192
4.48148
4.35016
4.24144
4.17704
4.16985
4.22628
4.34811
4.53397
4.78039
5.08259
5.43507
5.83204
6.26769
6.73638
7.23284
7.7523
8.29082
8.84608
9.41931
10
15.2138
15.2138
16.4138
18.9495
20.5726
-2.14364
-19.2063
-35.8189
-55.4736
-68.4084
-68.045
-65.6384
-62.2181
-57.5248
-51.5711
-44.6871
-37.364
-30.1078
-23.3406
-17.3524
-12.2948
-8.20079
-5.01592
-2.63127
-0.91207
0.280889
1.07729
1.58979
1.91128
2.11507
2.25688
2.37748
2.50554
2.66025
2.85362
3.09232
3.37916
3.71415
4.09537
4.51948
4.98215
5.47834
6.00261
6.54926
7.11259
7.68713
8.26792
8.85089
9.43316
10
8.54926
8.54926
8.44119
7.81713
4.67112
-6.09028
-18.015
-30.3018
-42.428
-50.7326
-53.2351
-52.8685
-50.8737
-47.6427
-43.4172
-38.4906
-33.2079
-27.912
-22.893
-18.3593
-14.4304
-11.1458
-8.48397
-6.38214
-4.75572
-3.51313
-2.56626
-1.83663
-1.25823
-0.778061
-0.355236
0.0406921
0.431611
0.832701
1.25406
1.702
2.18004
2.68957
3.23029
3.80041
4.39685
5.01533
5.6505
6.29622
6.94576
7.59218
8.22856
8.84803
9.44284
10
2.79078
2.79078
2.08353
0.478518
-2.87786
-9.11352
-16.6534
-24.5688
-32.0122
-37.5331
-40.3339
-41.0697
-40.3549
-38.5627
-35.9564
-32.7802
-29.2791
-25.6854
-22.1962
-18.9581
-16.0623
-13.5489
-11.4165
-9.635
-8.15729
-6.92931
-5.89727
-5.01224
-4.23254
-3.52442
-2.86169
-2.2247
-1.59913
-0.97464
-0.34389
0.298364
0.955779
1.63068
2.32408
3.03558
3.76315
4.50308
5.24994
5.9968
6.73557
7.45747
8.15353
8.81477
9.43164
10
-1.41338
-1.41338
-2.30392
-3.99774
-6.74503
-10.751
-15.528
-20.5366
-25.2175
-28.923
-31.265
-32.3344
-32.3632
-31.5689
-30.1401
-28.2518
-26.0717
-23.7543
-21.4304
-19.2001
-17.1294
-15.2524
-13.5771
-12.0926
-10.7764
-9.60048
-8.53607
-7.5568
-6.64018
-5.76821
-4.92712
-4.10671
-3.29946
-2.4997
-1.70289
-0.905119
-0.102964
0.70645
1.52511
2.35365
3.19091
4.03354
4.87591
5.71019
6.52686
7.31536
8.06494
8.76554
9.40854
10
-4.02234
-4.02234
-4.9805
-6.56498
-8.76143
-11.5429
-14.7027
-17.9633
-21.0194
-23.5617
-25.385
-26.4575
-26.8468
-26.6551
-25.9919
-24.9676
-23.6892
-22.2552
-20.7496
-19.238
-17.7659
-16.3601
-15.0319
-13.7813
-12.6011
-11.4807
-10.4086
-9.37446
-8.36964
-7.38773
-6.42421
-5.476
-4.5408
-3.61653
-2.70088
-1.79106
-0.883935
0.0236886
0.934432
1.84964
2.76867
3.68834
4.60268
5.50304
6.37857
7.21707
8.00619
8.73489
9.39546
10
-5.25718
-5.25718
-6.35001
-7.90005
-9.7774
-11.9041
-14.1727
-16.4473
-18.5764
-20.411
-21.8417
-22.8239
-23.3658
-23.5063
-23.3006
-22.8109
-22.1005
-21.2291
-20.2489
-19.2017
-18.1187
-17.0206
-15.9202
-14.824
-13.7347
-12.6528
-11.5782
-10.5109
-9.45127
-8.40042
-7.3597
-6.33048
-5.31369
-4.30943
-3.31674
-2.33355
-1.35695
-0.383664
0.589145
1.56303
2.53743
3.50899
4.47128
5.41484
6.32772
7.19639
8.00693
8.74678
9.4071
10
-5.42041
-5.42041
-6.82889
-8.48093
-10.2471
-12.0721
-13.9038
-15.6797
-17.329
-18.7799
-19.9735
-20.8745
-21.4731
-21.7795
-21.8179
-21.6208
-21.2244
-20.6648
-19.9747
-19.1823
-18.3104
-17.3772
-16.3965
-15.3792
-14.3341
-13.2684
-12.1885
-11.1001
-10.0086
-8.91867
-7.8347
-6.7601
-5.6972
-4.64705
-3.60926
-2.58213
-1.56302
-0.548918
0.462736
1.47314
2.48129
3.48334
4.47229