# vtk DataFile Version 3.0
vtk output340
ASCII
DATASET STRUCTURED_GRID
DIMENSIONS 61 41 1
POINTS 2501 float
0 0 0
0.1 0 0
0.2 0 0
0.3 0 0
0.4 0 0
0.5 0 0
0.6 0 0
0.7 0 0
0.8 0 0
0.9 0 0
1 0 0
1.1 0 0
1.2 0 0
1.3 0 0
1.4 0 0
1.5 0 0
1.6 0 0
1.7 0 0
1.8 0 0
1.9 0 0
2 0 0
2.1 0 0
2.2 0 0
2.3 0 0
2.4 0 0
2.5 0 0
2.6 0 0
2.7 0 0
2.8 0 0
2.9 0 0
3 0 0
3.1 0 0
3.2 0 0
3.3 0 0
3.4 0 0
3.5 0 0
3.6 0 0
3.7 0 0
3.8 0 0
3.9 0 0
4 0 0
4.1 0 0
4.2 0 0
4.3 0 0
4.4 0 0
4.5 0 0
4.6 0 0
4.7 0 0
4.8 0 0
4.9 0 0
5 0 0
5.1 0 0
5.2 0 0
5.3 0 0
5.4 0 0
5.5 0 0
5.6 0 0
5.7 0 0
5.8 0 0
5.9 0 0
6 0 0
0 0.1 0
0.1 0.1 0
0.2 0.1 0
0.3 0.1 0
0.4 0.1 0
0.5 0.1 0
0.6 0.1 0
0.7 0.1 0
0.8 0.1 0
0.9 0.1 0
1 0.1 0
1.1 0.1 0
1.2 0.1 0
1.3 0.1 0
1.4 0.1 0
1.5 0.1 0
1.6 0.1 0
1.7 0.1 0
1.8 0.1 0
1.9 0.1 0
2 0.1 0
2.1 0.1 0
2.2 0.1 0
2.3 0.1 0
2.4 0.1 0
2.5 0.1 0
2.6 0.1 0
2.7 0.1 0
2.8 0.1 0
2.9 0.1 0
3 0.1 0
3.1 0.1 0
3.2 0.1 0
3.3 0.1 0
3.4 0.1 0
3.5 0.1 0
3.6 0.1 0
3.7 0.1 0
3.8 0.1 0
3.9 0.1 0
4 0.1 0
4.1 0.1 0
4.2 0.1 0
4.3 0.1 0
4.4 0.1 0
4.5 0.1 0
4.6 0.1 0
4.7 0.1 0
4.8 0.1 0
4.9 0.1 0
5 0.1 0
5.1 0.1 0
5.2 0.1 0
5.3 0.1 0
5.4 0.1 0
5.5 0.1 0
5.6 0.1 0
5.7 0.1 0
5.8 0.1 0
5.9 0.1 0
6 0.1 0
0 0.2 0
0.1 0.2 0
0.2 0.2 0
0.3 0.2 0
0.4 0.2 0
0.5 0.2 0
0.6 0.2 0
0.7 0.2 0
0.8 0.2 0
0.9 0.2 0
1 0.2 0
1.1 0.2 0
1.2 0.2 0
1.3 0.2 0
1.4 0.2 0
1.5 0.2 0
1.6 0.2 0
1.7 0.2 0
1.8 0.2 0
1.9 0.2 0
2 0.2 0
2.1 0.2 0
2.2 0.2 0
2.3 0.2 0
2.4 0.2 0
2.5 0.2 0
2.6 0.2 0
2.7 0.2 0
2.8 0.2 0
2.9 0.2 0
3 0.2 0
3.1 0.2 0
3.2 0.2 0
3.3 0.2 0
3.4 0.2 0
3.5 0.2 0
3.6 0.2 0
3.7 0.2 0
3.8 0.2 0
3.9 0.2 0
4 0.2 0
4.1 0.2 0
4.2 0.2 0
4.3 0.2 0
4.4 0.2 0
4.5 0.2 0
4.6 0.2 0
4.7 0.2 0
4.8 0.2 0
4.9 0.2 0
5 0.2 0
5.1 0.2 0
5.2 0.2 0
5.3 0.2 0
5.4 0.2 0
5.5 0.2 0
5.6 0.2 0
5.7 0.2 0
5.8 0.2 0
5.9 0.2 0
6 0.2 0
0 0.3 0
0.1 0.3 0
0.2 0.3 0
0.3 0.3 0
0.4 0.3 0
0.5 0.3 0
0.6 0.3 0
0.7 0.3 0
0.8 0.3 0
0.9 0.3 0
1 0.3 0
1.1 0.3 0
1.2 0.3 0
1.3 0.3 0
1.4 0.3 0
1.5 0.3 0
1.6 0.3 0
1.7 0.3 0
1.8 0.3 0
1.9 0.3 0
2 0.3 0
2.1 0.3 0
2.2 0.3 0
2.3 0.3 0
2.4 0.3 0
2.5 0.3 0
2.6 0.3 0
2.7 0.3 0
2.8 0.3 0
2.9 0.3 0
3 0.3 0
3.1 0.3 0
3.2 0.3 0
3.3 0.3 0
3.4 0.3 0
3.5 0.3 0
3.6 0.3 0
3.7 0.3 0
3.8 0.3 0
3.9 0.3 0
4 0.3 0
4.1 0.3 0
4.2 0.3 0
4.3 0.3 0
4.4 0.3 0
4.5 0.3 0
4.6 0.3 0
4.7 0.3 0
4.8 0.3 0
4.9 0.3 0
5 0.3 0
5.1 0.3 0
5.2 0.3 0
5.3 0.3 0
5.4 0.3 0
5.5 0.3 0
5.6 0.3 0
5.7 0.3 0
5.8 0.3 0
5.9 0.3 0
6 0.3 0
0 0.4 0
0.1 0.4 0
0.2 0.4 0
0.3 0.4 0
0.4 0.4 0
0.5 0.4 0
0.6 0.4 0
0.7 0.4 0
0.8 0.4 0
0.9 0.4 0
1 0.4 0
1.1 0.4 0
1.2 0.4 0
1.3 0.4 0
1.4 0.4 0
1.5 0.4 0
1.6 0.4 0
1.7 0.4 0
1.8 0.4 0
1.9 0.4 0
2 0.4 0
2.1 0.4 0
2.2 0.4 0
2.3 0.4 0
2.4 0.4 0
2.5 0.4 0
2.6 0.4 0
2.7 0.4 0
2.8 0.4 0
2.9 0.4 0
3 0.4 0
3.1 0.4 0
3.2 0.4 0
3.3 0.4 0
3.4 0.4 0
3.5 0.4 0
3.6 0.4 0
3.7 0.4 0
3.8 0.4 0
3.9 0.4 0
4 0.4 0
4.1 0.4 0
4.2 0.4 0
4.3 0.4 0
4.4 0.4 0
4.5 0.4 0
4.6 0.4 0
4.7 0.4 0
4.8 0.4 0
4.9 0.4 0
5 0.4 0
5.1 0.4 0
5.2 0.4 0
5.3 0.4 0
5.4 0.4 0
5.5 0.4 0
5.6 0.4 0
5.7 0.4 0
5.8 0.4 0
5.9 0.4 0
6 0.4 0
0 0.5 0
0.1 0.5 0
0.2 0.5 0
0.3 0.5 0
0.4 0.5 0
0.5 0.5 0
0.6 0.5 0
0.7 0.5 0
0.8 0.5 0
0.9 0.5 0
1 0.5 0
1.1 0.5 0
1.2 0.5 0
1.3 0.5 0
1.4 0.5 0
1.5 0.5 0
1.6 0.5 0
1.7 0.5 0
1.8 0.5 0
1.9 0.5 0
2 0.5 0
2.1 0.5 0
2.2 0.5 0
2.3 0.5 0
2.4 0.5 0
2.5 0.5 0
2.6 0.5 0
2.7 0.5 0
2.8 0.5 0
2.9 0.5 0
3 0.5 0
3.1 0.5 0
3.2 0.5 0
3.3 0.5 0
3.4 0.5 0
3.5 0.5 0
3.6 0.5 0
3.7 0.5 0
3.8 0.5 0
3.9 0.5 0
4 0.5 0
4.1 0.5 0
4.2 0.5 0
4.3 0.5 0
4.4 0.5 0
4.5 0.5 0
4.6 0.5 0
4.7 0.5 0
4.8 0.5 0
4.9 0.5 0
5 0.5 0
5.1 0.5 0
5.2 0.5 0
5.3 0.5 0
5.4 0.5 0
5.5 0.5 0
5.6 0.5 0
5.7 0.5 0
5.8 0.5 0
5.9 0.5 0
6 0.5 0
0 0.6 0
0.1 0.6 0
0.2 0.6 0
0.3 0.6 0
0.4 0.6 0
0.5 0.6 0
0.6 0.6 0
0.7 0.6 0
0.8 0.6 0
0.9 0.6 0
1 0.6 0
1.1 0.6 0
1.2 0.6 0
1.3 0.6 0
1.4 0.6 0
1.5 0.6 0
1.6 0.6 0
1.7 0.6 0
1.8 0.6 0
1.9 0.6 0
2 0.6 0
2.1 0.6 0
2.2 0.6 0
2.3 0.6 0
2.4 0.6 0
2.5 0.6 0
2.6 0.6 0
2.7 0.6 0
2.8 0.6 0
2.9 0.6 0
3 0.6 0
3.1 0.6 0
3.2 0.6 0
3.3 0.6 0
3.4 0.6 0
3.5 0.6 0
3.6 0.6 0
3.7 0.6 0
3.8 0.6 0
3.9 0.6 0
4 0.6 0
4.1 0.6 0
4.2 0.6 0
4.3 0.6 0
4.4 0.6 0
4.5 0.6 0
4.6 0.6 0
4.7 0.6 0
4.8 0.6 0
4.9 0.6 0
5 0.6 0
5.1 0.6 0
5.2 0.6 0
5.3 0.6 0
5.4 0.6 0
5.5 0.6 0
5.6 0.6 0
5.7 0.6 0
5.8 0.6 0
5.9 0.6 0
6 0.6 0
0 0.7 0
0.1 0.7 0
0.2 0.7 0
0.3 0.7 0
0.4 0.7 0
0.5 0.7 0
0.6 0.7 0
0.7 0.7 0
0.8 0.7 0
0.9 0.7 0
1 0.7 0
1.1 0.7 0
1.2 0.7 0
1.3 0.7 0
1.4 0.7 0
1.5 0.7 0
1.6 0.7 0
1.7 0.7 0
1.8 0.7 0
1.9 0.7 0
2 0.7 0
2.1 0.7 0
2.2 0.7 0
2.3 0.7 0
2.4 0.7 0
2.5 0.7 0
2.6 0.7 0
2.7 0.7 0
2.8 0.7 0
2.9 0.7 0
3 0.7 0
3.1 0.7 0
3.2 0.7 0
3.3 0.7 0
3.4 0.7 0
3.5 0.7 0
3.6 0.7 0
3.7 0.7 0
3.8 0.7 0
3.9 0.7 0
4 0.7 0
4.1 0.7 0
4.2 0.7 0
4.3 0.7 0
4.4 0.7 0
4.5 0.7 0
4.6 0.7 0
4.7 0.7 0
4.8 0.7 0
4.9 0.7 0
5 0.7 0
5.1 0.7 0
5.2 0.7 0
5.3 0.7 0
5.4 0.7 0
5.5 0.7 0
5.6 0.7 0
5.7 0.7 0
5.8 0.7 0
5.9 0.7 0
6 0.7 0
0 0.8 0
0.1 0.8 0
0.2 0.8 0
0.3 0.8 0
0.4 0.8 0
0.5 0.8 0
0.6 0.8 0
0.7 0.8 0
0.8 0.8 0
0.9 0.8 0
1 0.8 0
1.1 0.8 0
1.2 0.8 0
1.3 0.8 0
1.4 0.8 0
1.5 0.8 0
1.6 0.8 0
1.7 0.8 0
1.8 0.8 0
1.9 0.8 0
2 0.8 0
2.1 0.8 0
2.2 0.8 0
2.3 0.8 0
2.4 0.8 0
2.5 0.8 0
2.6 0.8 0
2.7 0.8 0
2.8 0.8 0
2.9 0.8 0
3 0.8 0
3.1 0.8 0
3.2 0.8 0
3.3 0.8 0
3.4 0.8 0
3.5 0.8 0
3.6 0.8 0
3.7 0.8 0
3.8 0.8 0
3.9 0.8 0
4 0.8 0
4.1 0.8 0
4.2 0.8 0
4.3 0.8 0
4.4 0.8 0
4.5 0.8 0
4.6 0.8 0
4.7 0.8 0
4.8 0.8 0
4.9 0.8 0
5 0.8 0
5.1 0.8 0
5.2 0.8 0
5.3 0.8 0
5.4 0.8 0
5.5 0.8 0
5.6 0.8 0
5.7 0.8 0
5.8 0.8 0
5.9 0.8 0
6 0.8 0
0 0.9 0
0.1 0.9 0
0.2 0.9 0
0.3 0.9 0
0.4 0.9 0
0.5 0.9 0
0.6 0.9 0
0.7 0.9 0
0.8 0.9 0
0.9 0.9 0
1 0.9 0
1.1 0.9 0
1.2 0.9 0
1.3 0.9 0
1.4 0.9 0
1.5 0.9 0
1.6 0.9 0
1.7 0.9 0
1.8 0.9 0
1.9 0.9 0
2 0.9 0
2.1 0.9 0
2.2 0.9 0
2.3 0.9 0
2.4 0.9 0
2.5 0.9 0
2.6 0.9 0
2.7 0.9 0
2.8 0.9 0
2.9 0.9 0
3 0.9 0
3.1 0.9 0
3.2 0.9 0
3.3 0.9 0
3.4 0.9 0
3.5 0.9 0
3.6 0.9 0
3.7 0.9 0
3.8 0.9 0
3.9 0.9 0
4 0.9 0
4.1 0.9 0
4.2 0.9 0
4.3 0.9 0
4.4 0.9 0
4.5 0.9 0
4.6 0.9 0
4.7 0.9 0
4.8 0.9 0
4.9 0.9 0
5 0.9 0
5.1 0.9 0
5.2 0.9 0
5.3 0.9 0
5.4 0.9 0
5.5 0.9 0
5.6 0.9 0
5.7 0.9 0
5.8 0.9 0
5.9 0.9 0
6 0.9 0
0 1 0
0.1 1 0
0.2 1 0
0.3 1 0
0.4 1 0
0.5 1 0
0.6 1 0
0.7 1 0
0.8 1 0
0.9 1 0
1 1 0
1.1 1 0
1.2 1 0
1.3 1 0
1.4 1 0
1.5 1 0
1.6 1 0
1.7 1 0
1.8 1 0
1.9 1 0
2 1 0
2.1 1 0
2.2 1 0
2.3 1 0
2.4 1 0
2.5 1 0
2.6 1 0
2.7 1 0
2.8 1 0
2.9 1 0
3 1 0
3.1 1 0
3.2 1 0
3.3 1 0
3.4 1 0
3.5 1 0
3.6 1 0
3.7 1 0
3.8 1 0
3.9 1 0
4 1 0
4.1 1 0
4.2 1 0
4.3 1 0
4.4 1 0
4.5 1 0
4.6 1 0
4.7 1 0
4.8 1 0
4.9 1 0
5 1 0
5.1 1 0
5.2 1 0
5.3 1 0
5.4 1 0
5.5 1 0
5.6 1 0
5.7 1 0
5.8 1 0
5.9 1 0
6 1 0
0 1.1 0
0.1 1.1 0
0.2 1.1 0
0.3 1.1 0
0.4 1.1 0
0.5 1.1 0
0.6 1.1 0
0.7 1.1 0
0.8 1.1 0
0.9 1.1 0
1 1.1 0
1.1 1.1 0
1.2 1.1 0
1.3 1.1 0
1.4 1.1 0
1.5 1.1 0
1.6 1.1 0
1.7 1.1 0
1.8 1.1 0
1.9 1.1 0
2 1.1 0
2.1 1.1 0
2.2 1.1 0
2.3 1.1 0
2.4 1.1 0
2.5 1.1 0
2.6 1.1 0
2.7 1.1 0
2.8 1.1 0
2.9 1.1 0
3 1.1 0
3.1 1.1 0
3.2 1.1 0
3.3 1.1 0
3.4 1.1 0
3.5 1.1 0
3.6 1.1 0
3.7 1.1 0
3.8 1.1 0
3.9 1.1 0
4 1.1 0
4.1 1.1 0
4.2 1.1 0
4.3 1.1 0
4.4 1.1 0
4.5 1.1 0
4.6 1.1 0
4.7 1.1 0
4.8 1.1 0
4.9 1.1 0
5 1.1 0
5.1 1.1 0
5.2 1.1 0
5.3 1.1 0
5.4 1.1 0
5.5 1.1 0
5.6 1.1 0
5.7 1.1 0
5.8 1.1 0
5.9 1.1 0
6 1.1 0
0 1.2 0
0.1 1.2 0
0.2 1.2 0
0.3 1.2 0
0.4 1.2 0
0.5 1.2 0
0.6 1.2 0
0.7 1.2 0
0.8 1.2 0
0.9 1.2 0
1 1.2 0
1.1 1.2 0
1.2 1.2 0
1.3 1.2 0
1.4 1.2 0
1.5 1.2 0
1.6 1.2 0
1.7 1.2 0
1.8 1.2 0
1.9 1.2 0
2 1.2 0
2.1 1.2 0
2.2 1.2 0
2.3 1.2 0
2.4 1.2 0
2.5 1.2 0
2.6 1.2 0
2.7 1.2 0
2.8 1.2 0
2.9 1.2 0
3 1.2 0
3.1 1.2 0
3.2 1.2 0
3.3 1.2 0
3.4 1.2 0
3.5 1.2 0
3.6 1.2 0
3.7 1.2 0
3.8 1.2 0
3.9 1.2 0
4 1.2 0
4.1 1.2 0
4.2 1.2 0
4.3 1.2 0
4.4 1.2 0
4.5 1.2 0
4.6 1.2 0
4.7 1.2 0
4.8 1.2 0
4.9 1.2 0
5 1.2 0
5.1 1.2 0
5.2 1.2 0
5.3 1.2 0
5.4 1.2 0
5.5 1.2 0
5.6 1.2 0
5.7 1.2 0
5.8 1.2 0
5.9 1.2 0
6 1.2 0
0 1.3 0
0.1 1.3 0
0.2 1.3 0
0.3 1.3 0
0.4 1.3 0
0.5 1.3 0
0.6 1.3 0
0.7 1.3 0
0.8 1.3 0
0.9 1.3 0
1 1.3 0
1.1 1.3 0
1.2 1.3 0
1.3 1.3 0
1.4 1.3 0
1.5 1.3 0
1.6 1.3 0
1.7 1.3 0
1.8 1.3 0
1.9 1.3 0
2 1.3 0
2.1 1.3 0
2.2 1.3 0
2.3 1.3 0
2.4 1.3 0
2.5 1.3 0
2.6 1.3 0
2.7 1.3 0
2.8 1.3 0
2.9 1.3 0
3 1.3 0
3.1 1.3 0
3.2 1.3 0
3.3 1.3 0
3.4 1.3 0
3.5 1.3 0
3.6 1.3 0
3.7 1.3 0
3.8 1.3 0
3.9 1.3 0
4 1.3 0
4.1 1.3 0
4.2 1.3 0
4.3 1.3 0
4.4 1.3 0
4.5 1.3 0
4.6 1.3 0
4.7 1.3 0
4.8 1.3 0
4.9 1.3 0
5 1.3 0
5.1 1.3 0
5.2 1.3 0
5.3 1.3 0
5.4 1.3 0
5.5 1.3 0
5.6 1.3 0
5.7 1.3 0
5.8 1.3 0
5.9 1.3 0
6 1.3 0
0 1.4 0
0.1 1.4 0
0.2 1.4 0
0.3 1.4 0
0.4 1.4 0
0.5 1.4 0
0.6 1.4 0
0.7 1.4 0
0.8 1.4 0
0.9 1.4 0
1 1.4 0
1.1 1.4 0
1.2 1.4 0
1.3 1.4 0
1.4 1.4 0
1.5 1.4 0
1.6 1.4 0
1.7 1.4 0
1.8 1.4 0
1.9 1.4 0
2 1.4 0
2.1 1.4 0
2.2 1.4 0
2.3 1.4 0
2.4 1.4 0
2.5 1.4 0
2.6 1.4 0
2.7 1.4 0
2.8 1.4 0
2.9 1.4 0
3 1.4 0
3.1 1.4 0
3.2 1.4 0
3.3 1.4 0
3.4 1.4 0
3.5 1.4 0
3.6 1.4 0
3.7 1.4 0
3.8 1.4 0
3.9 1.4 0
4 1.4 0
4.1 1.4 0
4.2 1.4 0
4.3 1.4 0
4.4 1.4 0
4.5 1.4 0
4.6 1.4 0
4.7 1.4 0
4.8 1.4 0
4.9 1.4 0
5 1.4 0
5.1 1.4 0
5.2 1.4 0
5.3 1.4 0
5.4 1.4 0
5.5 1.4 0
5.6 1.4 0
5.7 1.4 0
5.8 1.4 0
5.9 1.4 0
6 1.4 0
0 1.5 0
0.1 1.5 0
0.2 1.5 0
0.3 1.5 0
0.4 1.5 0
0.5 1.5 0
0.6 1.5 0
0.7 1.5 0
0.8 1.5 0
0.9 1.5 0
1 1.5 0
1.1 1.5 0
1.2 1.5 0
1.3 1.5 0
1.4 1.5 0
1.5 1.5 0
1.6 1.5 0
1.7 1.5 0
1.8 1.5 0
1.9 1.5 0
2 1.5 0
2.1 1.5 0
2.2 1.5 0
2.3 1.5 0
2.4 1.5 0
2.5 1.5 0
2.6 1.5 0
2.7 1.5 0
2.8 1.5 0
2.9 1.5 0
3 1.5 0
3.1 1.5 0
3.2 1.5 0
3.3 1.5 0
3.4 1.5 0
3.5 1.5 0
3.6 1.5 0
3.7 1.5 0
3.8 1.5 0
3.9 1.5 0
4 1.5 0
4.1 1.5 0
4.2 1.5 0
4.3 1.5 0
4.4 1.5 0
4.5 1.5 0
4.6 1.5 0
4.7 1.5 0
4.8 1.5 0
4.9 1.5 0
5 1.5 0
5.1 1.5 0
5.2 1.5 0
5.3 1.5 0
5.4 1.5 0
5.5 1.5 0
5.6 1.5 0
5.7 1.5 0
5.8 1.5 0
5.9 1.5 0
6 1.5 0
0 1.6 0
0.1 1.6 0
0.2 1.6 0
0.3 1.6 0
0.4 1.6 0
0.5 1.6 0
0.6 1.6 0
0.7 1.6 0
0.8 1.6 0
0.9 1.6 0
1 1.6 0
1.1 1.6 0
1.2 1.6 0
1.3 1.6 0
1.4 1.6 0
1.5 1.6 0
1.6 1.6 0
1.7 1.6 0
1.8 1.6 0
1.9 1.6 0
2 1.6 0
2.1 1.6 0
2.2 1.6 0
2.3 1.6 0
2.4 1.6 0
2.5 1.6 0
2.6 1.6 0
2.7 1.6 0
2.8 1.6 0
2.9 1.6 0
3 1.6 0
3.1 1.6 0
3.2 1.6 0
3.3 1.6 0
3.4 1.6 0
3.5 1.6 0
3.6 1.6 0
3.7 1.6 0
3.8 1.6 0
3.9 1.6 0
4 1.6 0
4.1 1.6 0
4.2 1.6 0
4.3 1.6 0
4.4 1.6 0
4.5 1.6 0
4.6 1.6 0
4.7 1.6 0
4.8 1.6 0
4.9 1.6 0
5 1.6 0
5.1 1.6 0
5.2 1.6 0
5.3 1.6 0
5.4 1.6 0
5.5 1.6 0
5.6 1.6 0
5.7 1.6 0
5.8 1.6 0
5.9 1.6 0
6 1.6 0
[...]
CELL_DATA 2400
SCALARS phi float
LOOKUP_TABLE default 
4.711
4.711
4.711
4.711
4.711
4.711
4.711
4.711
4.711
4.711
4.711
4.711
4.711
4.711
4.711
4.711
4.711
4.711
4.711
4.711
4.711
4.711
4.711
4.711
4.711
4.711
4.711
4.711
4.711
4.711
4.711
4.711
4.711
4.711
4.711
4.711
4.711
4.711
4.711
4.711
4.711
4.711
4.711
4.711
4.711
4.711
4.711
4.711
4.711
4.711
4.711
4.711
4.711
4.711
4.711
4.711
4.711
4.711
4.711
4.711
4.711
4.711
4.711
4.711
4.711
4.711
4.711
4.711
4.711
4.711
4.711
4.711
4.711
4.711
4.711
4.711
4.711
4.711
4.711
4.711
4.711
4.711
4.711
4.711
4.711
4.711
4.711
4.711
4.711
4.711
4.711
4.711
4.711
4.711
4.711
4.711
4.711
4.711
4.711
4.711
4.711
4.711
4.711
4.711
4.711
4.711
4.711
4.711
4.711
4.711
4.711
4.711
4.711
4.711
4.711
4.711
4.711
4.711
4.711
4.711
4.711
4.711
4.711
4.711
4.711
4.711
4.711
4.711
4.711
4.711
4.711
4.711
4.711
4.711
4.711
4.711
4.711
4.711
4.711
4.711
4.711
4.711
4.711
4.711
4.711
4.711
4.711
4.711
4.711
4.711
4.711
4.711
4.711
4.711
4.711
4.711
4.711
4.711
4.711
4.711
4.711
4.711
4.711
4.711
4.711
4.711
4.711
4.711
4.711
4.711
4.711
4.711
4.711
4.711
4.711
4.711
4.711
4.711
4.711
4.711
4.711
4.711
4.711
4.711
4.711
4.711
4.711
4.711
4.711
4.711
4.711
4.711
4.711
4.711
4.711
4.711
4.711
4.711
4.711
4.711
4.711
4.711
4.711
4.711
4.711
4.711
4.711
4.711
4.711
4.711
4.711
4.711
4.711
4.711
4.711
4.711
4.711
4.711
4.711
4.711
4.711
4.711
4.711
4.711
4.711
4.711
4.711
4.711
4.711
4.711
4.711
4.711
4.711
4.711
4.711
4.711
4.711
4.711
4.711
4.711
4.711
4.711
4.711
4.711
4.711
4.711
4.711
4.711
4.711
4.711
4.711
4.711
4.711
4.711
4.711
4.711
4.711
4.711
4.711
4.711
4.711
4.711
4.711
4.711
4.711
4.711
4.711
4.711
4.711
4.711
4.711
4.711
4.711
4.711
4.711
4.711
4.711
4.711
4.711
4.711
4.711
4.711
4.711
4.711
4.711
4.711
4.711
4.711
4.711
4.711
4.711
4.711
4.711
4.711
4.711
4.711
4.711
4.711
4.711
4.711
4.711
4.711
4.711
4.711
4.711
4.711
4.711
4.711
4.711
4.711
4.711
4.711
4.711
4.711
4.711
4.711
4.711
4.711
4.711
4.711
4.711
4.711
4.711
4.711
4.711
4.711
4.711
4.711
4.711
4.711
4.711
4.711
4.711
4.711
4.711
4.711
4.711
4.711
4.711
4.711
4.711
4.711
4.711
4.711
4.711
4.711
4.711
4.711
4.711
4.711
4.711
4.711
4.711
4.711
4.711
4.711
4.711
4.711
4.711
4.711
4.711
4.711
4.711
4.711
4.711
4.711
4.711
4.711
4.711
4.711
4.711
4.711
4.711
4.711
4.711
4.711
4.711
4.711
4.711
4.711
4.711
4.711
4.711
4.711
4.711
4.711
4.711
4.711
4.711
4.711
4.711
4.711
4.711
4.711
4.711
4.711
4.711
4.711
4.711
4.711
4.711
4.711
4.711
4.711
4.711
4.711
4.711
4.711
4.711
4.711
4.711
4.711
4.711
4.711
4.711
4.711
4.711
4.711
4.711
4.711
4.711
4.711
4.711
4.711
4.711
4.711
4.711
4.711
4.711
4.711
4.711
4.711
4.711
4.711
4.711
4.711
4.711
4.711
4.711
4.711
4.711
4.711
4.711
4.711
4.711
4.711
4.711
4.711
4.711
4.711
4.711
4.711
4.711
4.711
4.711
4.711
4.711
4.711
4.711
4.711
4.711
4.711
4.711
4.711
4.711
4.711
4.711
4.711
4.711
4.711
4.711
4.711
4.711
4.711
4.711
4.711
4.711
4.711
4.711
4.711
4.711
4.711
4.711
4.711
4.711
4.711
4.711
4.711
4.711
4.711
4.711
4.711
4.711
4.711
4.711
4.711
4.711
4.711
4.711
4.711
4.711
4.711
4.711
4.711
4.711
4.711
4.711
4.711
4.711
4.711
4.711
4.711
4.711
4.711
4.711
4.711
4.711
4.711
4.711
4.711
4.711
4.711
4.711
4.711
4.711
4.711
4.711
4.711
4.711
4.711
4.711
4.711
4.711
4.711
4.711
4.711
4.711
4.711
4.711
4.711
4.711
4.711
4.711
4.711
4.711
4.711
4.711
4.711
4.711
4.711
4.711
4.711
4.711
4.711
4.711
4.711
4.711
4.711
4.711
4.711
4.711
4.711
4.711
4.711
4.711
4.711
4.711
4.711
4.711
4.711
4.711
4.711
4.711
4.711
4.711
4.711
4.711
4.711
4.711
4.711
4.711
4.711
4.711
4.711
4.711
4.711
4.711
4.711
4.711
4.711
4.711
4.711
4.711
4.711
4.711
4.711
4.711
4.711
4.711
4.711
4.711
4.711
4.711
4.711
4.711
4.711
4.711
4.711
4.711
4.711
4.711
4.711
4.711
4.711
4.711
4.711
4.711
4.711
4.711
4.711
4.711
4.711
4.711
4.711
4.711
4.711
4.711
4.711
4.711
4.711
4.711
4.711
4.711
4.711
4.711
4.711
4.711
4.711
4.711
4.711
4.711
4.711
4.711
4.711
4.711
4.711
4.711
4.711
4.711
4.711
4.711
4.711
4.711
4.711
4.711
4.711
4.711
4.711
4.711
4.711
4.711
4.711
4.711
4.711
4.711
4.711
4.711
4.711
4.711
4.711
4.711
4.711
4.711
4.711
4.711
4.711
4.711
4.711
4.711
4.711
4.711
4.711
4.711
4.711
4.711
4.711
4.711
4.711
4.711
4.711
4.711
4.711
4.711
4.711
4.711
4.711
4.711
4.711
4.711
4.711
4.711
4.711
4.711
4.711
4.711
4.711
4.711
4.711
4.711
4.711
4.711
4.711
4.711
4.711
4.711
4.711
4.711
4.711
4.711
4.711
4.711
4.711
4.711
4.711
4.711
4.711
4.711
4.711
4.711
4.711
4.711
4.711
4.711
4.711
4.711
4.711
4.711
4.711
4.711
4.711
4.711
4.711
4.711
4.711
4.711
4.711
4.711
4.711
4.711
4.711
4.711
4.711
4.711
4.711
4.711
4.711
4.711
4.711
4.711
4.711
4.711
4.711
4.711
4.711
4.711
4.711
4.711
4.711
4.711
4.711
4.711
4.711
4.711
4.711
4.711
4.711
4.711
4.711
4.711
4.711
4.711
4.711
4.711
4.711
4.711
4.711
4.711
4.711
4.711
4.711
4.711
4.711
4.711
4.711
4.711
4.711
4.711
4.711
4.711
4.711
4.711
4.711
4.711
4.711
4.711
4.711
4.711
4.711
4.711
4.711
4.711
4.711
4.711
4.711
4.711
4.711
4.711
4.711
4.711
4.711
4.711
4.711
4.711
4.711
4.711
4.711
4.711
4.711
4.711
4.711
4.711
4.711
4.711
4.711
4.711
4.711
4.711
4.711
4.711
4.711
4.711
4.711
4.711
4.711
4.711
4.711
4.711
4.711
4.711
4.711
4.711
4.711
4.711
4.711
4.711
4.711
4.711
4.711
4.711
4.711
4.711
4.711
4.711
4.711
4.711
4.711
4.711
4.711
4.711
4.711
4.711
4.711
4.711
4.711
4.711
4.711
4.711
4.711
4.711
4.711
4.711
4.711
4.711
4.711
4.711
4.711
4.711
4.711
4.711
4.711
4.711
4.711
4.711
4.711
4.711
4.711
4.711
4.711
4.711
4.711
4.711
4.711
4.711
4.711
4.711
4.711
4.711
4.711
4.711
4.711
4.711
4.711
4.711
4.711
4.711
4.711
4.711
4.711
4.711
4.711
4.711
4.711
4.711
4.711
4.711
4.711
4.711
4.711
4.711
4.711
4.711
4.711
4.711
4.711
4.711
4.711
4.711
4.711
4.711
4.711
4.711
4.711
4.711
4.711
4.711
4.711
4.711
4.711
4.711
4.711
4.711
4.711
4.711
4.711
4.711
4.711
4.711
4.711
4.711
4.711
4.711
4.711
4.711
4.711
4.711
4.711
4.711
4.711
4.711
4.711
4.711
4.711
4.711
4.711
4.711
4.711
4.711
4.711
4.711
4.711
4.711
4.711
4.711
4.711
4.711
4.711
4.711
4.711
4.711
4.711
4.711
4.711
4.711
4.711
4.711
4.711
4.711
4.711
4.711
4.711
4.711
4.711
4.711
4.711
4.711
4.711
4.711
4.711
4.711
4.711
4.711
4.711
4.711
4.711
4.711
4.711
4.711
4.711
4.711
4.711
4.711
4.711
4.711
4.711
4.711
4.711
4.711
4.711
4.711
4.711
4.711
4.711
4.711
4.711
4.711
4.711
4.711
4.711
4.711
4.711
4.711
4.711
4.711
4.711
4.711
4.711
4.711
4.711
4.711
4.711
4.711
4.711
4.711
4.711
4.711
4.711
4.711
4.711
4.711
4.711
4.711
4.711
4.711
4.711
4.711
4.711
4.711
4.711
4.711
4.711
4.711
4.711
4.711
4.711
4.711
4.711
4.711
4.711
4.711
4.711
4.711
4.711
4.711
4.711
4.711
4.711
4.711
4.711
4.711
4.711
4.711
4.711
4.711
4.711
4.711
4.711
4.711
4.711
4.711
4.711
4.711
4.711
4.711
4.711
4.711
4.711
4.711
4.711
4.711
4.711
4.711
4.711
4.711
4.711
4.711
4.711
4.711
4.711
4.711
4.711
4.711
4.711
4.711
4.711
4.711
4.711
4.711
4.711
4.711
4.711
4.711
4.711
4.711
4.711
4.711
4.711
4.711
4.711
4.711
4.711
4.711
4.711
4.711
4.711
4.711
4.711
4.711
4.711
4.711
4.711
4.711
4.711
4.711
4.711
4.711
4.711
4.711
4.711
4.711
4.711
4.711
4.711
4.711
4.711
4.711
4.711
4.711
4.711
4.711
4.711
4.711
4.711
4.711
4.711
4.711
4.711
4.711
4.711
4.711
4.711
4.711
4.711
4.711
4.711
4.711
4.711
4.711
4.711
4.711
4.711
4.711
4.711
4.711
4.711
4.711
4.711
4.711
4.711
4.711
4.711
4.711
4.711
4.711
4.711
4.711
4.711
4.711
4.711
4.711
4.711
4.711
4.711
4.711
4.711
4.711
4.711
4.711
4.711
4.711
4.711
4.711
4.711
4.711
4.711
4.711
4.711
4.711
4.711
4.711
4.711
4.711
4.711
4.711
4.711
4.711
4.711
4.711
4.711
4.711
4.711
4.711
4.711
4.711
4.711
4.711
4.711
4.711
4.711
4.711
4.711
4.711
4.711
4.711
4.711
4.711
4.711
4.711
4.711
4.711
4.711
4.711
4.711
4.711
4.711
4.711
4.711
4.711
4.711
4.711
4.711
4.711
4.711
4.711
4.711
4.711
4.711
4.711
4.711
4.711
4.711
4.711
4.711
4.711
4.711
4.711
4.711
4.711
4.711
4.711
4.711
4.711
4.711
4.711
4.711
4.711
4.711
4.711
4.711
4.711
4.711
4.711
4.711
4.711
4.711
4.711
4.711
4.711
4.711
4.711
4.711
4.711
4.711
4.711
4.711
4.711
4.711
4.711
4.711
4.711
4.711
4.711
4.711
4.711
4.711
4.711
4.711
4.711
4.711
4.711
4.711
4.711
4.711
4.711
4.711
4.711
4.711
4.711
4.711
4.711
4.711
4.711
4.711
4.711
4.711
4.711
4.711
4.711
4.711
4.711
4.711
4.711
4.711
4.711
4.711
4.711
4.711
4.711
4.711
4.711
4.711
4.711
4.711
4.711
4.711
4.711
4.711
4.711
4.711
4.711
4.711
4.711
4.711
4.711
4.711
4.711
4.711
4.711
4.711
4.711
4.711
4.711
4.711
4.711
4.711
4.711
4.711
4.711
4.711
4.711
4.711
4.711
4.711
4.711
4.711
4.711
4.711
4.711
4.711
4.711
4.711
4.711
4.711
4.711
4.711
4.711
4.711
4.711
4.711
4.711
4.711
4.711
4.711
4.711
4.711
4.711
4.711
4.711
4.711
4.711
4.711
4.711
4.711
4.711
4.711
4.711
4.711
4.711
4.711
4.711
4.711
4.711
4.711
4.711
4.711
4.711
4.711
4.711
4.711
4.711
4.711
4.711
4.711
4.711
4.711
4.711
4.711
4.711
4.711
4.711
4.711
4.711
4.711
4.711
4.711
4.711
4.711
4.711
4.711
4.711
4.711
4.711
4.711
4.711
4.711
4.711
4.711
4.711
4.711
4.711
4.711
4.711
4.711
4.711
4.711
4.711
4.711
4.711
4.711
4.711
4.711
4.711
4.711
4.711
4.711
4.711
4.711
4.711
4.711
4.711
4.711
4.711
4.711
4.711
4.711
4.711
4.711
4.711
4.711
4.711
4.711
4.711
4.711
4.711
4.711
4.711
4.711
4.711
4.711
4.711
4.711
4.711
4.711
4.711
4.711
4.711
4.711
4.711
4.711
4.711
4.711
4.711
4.711
4.711
4.711
4.711
4.711
4.711
4.711
4.711
4.711
4.711
4.711
4.711
4.711
4.711
4.711
4.711
4.711
4.711
4.711
4.711
4.711
4.711
4.711
4.711
4.711
4.711
4.711
4.711
4.711
4.711
4.711
4.711
4.711
4.711
4.711
4.711
4.711
4.711
4.711
4.711
4.711
4.711
4.711
4.711
4.711
4.711
4.711
4.711
4.711
4.711
4.711
4.711
4.711
4.711
4.711
4.711
4.711
4.711
4.711
4.711
4.711
4.711
4.711
4.711
4.711
4.711
4.711
4.711
4.711
4.711
4.711
4.711
4.711
4.711
4.711
4.711
4.711
4.711
4.711
4.711
4.711
4.711
4.711
4.711
4.711
4.711
4.711
4.711
4.711
4.711
4.711
4.711
4.711
4.711
4.711
4.711
4.711
4.711
4.711
4.711
4.711
4.711
4.711
4.711
4.711
4.711
4.711
4.711
4.711
4.711
4.711
4.711
4.711
4.711
4.711
4.711
4.711
4.711
4.711
4.711
4.711
4.711
4.711
4.711
4.711
4.711
4.711
4.711
4.711
4.711
4.711
4.711
4.711
4.711
4.711
4.711
4.711
4.711
4.711
4.711
4.711
4.711
4.711
4.711
4.711
4.711
4.711
4.711
4.711
4.711
4.711
4.711
4.711
4.711
4.711
4.711
4.711
4.711
4.711
4.711
4.711
4.711
4.711
4.711
4.711
4.711
4.711
4.711
4.711
4.711
4.711
4.711
4.711
4.711
4.711
4.711
4.711
4.711
4.711
4.711
4.711
4.711
4.711
4.711
4.711
4.711
4.711
4.711
4.711
4.711
4.711
4.711
4.711
4.711
4.711
4.711
4.711
4.711
4.711
4.711
4.711
4.711
4.711
4.711
4.711
4.711
4.711
4.711
4.711
4.711
4.711
4.711
4.711
4.711
4.711
4.711
4.711
4.711
4.711
4.711
4.711
4.711
4.711
4.711
4.711
4.711
4.711
4.711
4.711
4.711
4.711
4.711
4.711
4.711
4.711
4.711
4.711
4.711
4.711
4.711
4.711
4.711
4.711
4.711
4.711
4.711
4.711
4.711
4.711
4.711
4.711
4.711
4.711
4.711
4.711
4.711
4.711
4.711
4.711
4.711
4.711
4.711
4.711
4.711
4.711
4.711
4.711
4.711
4.711
4.711
4.711
4.711
4.711
4.711
4.711
4.711
4.711
4.711
4.711
4.711
4.711
4.711
4.711
4.711
4.711
4.711
4.711
4.711
4.711
4.711
4.711
4.711
4.711
4.711
4.711
4.711
4.711
4.711
4.711
4.711
4.711
4.711
4.711
4.711
4.711
4.711
4.711
4.711
4.711
4.711
4.711
4.711
4.711
4.711
4.711
4.711
4.711
4.711
4.711
4.711
4.711
4.711
4.711
4.711
4.711
4.711
4.711
4.711
4.711
4.711
4.711
4.711
4.711
4.711
4.711
4.711
4.711
4.711
4.711
4.711
4.711
4.711
4.711
4.711
4.711
4.711
4.711
4.711
4.711
4.711
4.711
4.711
4.711
4.711
4.711
4.711
4.711
4.711
4.711
4.711
4.711
4.711
4.711
4.711
4.711
4.711
4.711
4.711
4.711
4.711
4.711
4.711
4.711
4.711
4.711
4.711
4.711
4.711
4.711
4.711
4.711
4.711
4.711
4.711
4.711
4.711
4.711
4.711
4.711
4.711
4.711
4.711
4.711
4.711
4.711
4.711
4.711
4.711
4.711
4.711
4.711
4.711
4.711
4.711
4.711
4.711
4.711
4.711
4.711
4.711
4.711
4.711
4.711
4.711
4.711
4.711
4.711
4.711
4.711
4.711
4.711
4.711
4.711
4.711
4.711
4.711
4.711
4.711
4.711
4.711
4.711
4.711
4.711
4.711
4.711
4.711
4.711
4.711
4.711
4.711
4.711
4.711
4.711
4.711
4.711
4.711
4.711
4.711
4.711
4.711
4.711
4.711
4.711
4.711
4.711
4.711
4.711
4.711
4.711
4.711
4.711
4.711
4.711
4.711
4.711
4.711
4.711
4.711
4.711
4.711
4.711
4.711
4.711
4.711
4.711
4.711
4.711
4.711
4.711
4.711
4.711
4.711
4.711
4.711
4.711
4.711
4.711
4.711
4.711
4.711
4.711
4.711
4.711
4.711
4.711
4.711
4.711
4.711
4.711
4.711
4.711
4.711
4.711
4.711
4.711
4.711
4.711
4.711
4.711
4.711
4.711
4.711
4.711
4.711
4.711
4.711
4.711
4.711
4.711
4.711
4.711
4.711
4.711
4.711
4.711
4.711
4.711
4.711
4.711
4.711
4.711
4.711
4.711
4.711
4.711
4.711
4.711
4.711
4.711
4.711
4.711
4.711
4.711
4.711
4.711
4.711
4.711
4.711
4.711
4.711
4.711
4.711
4.711
4.711
4.711
4.711
4.711
4.711
4.711
4.711
4.711
4.711
4.711
4.711
4.711
4.711
4.711
4.711
4.711
4.711
4.711
4.711
4.711
4.711
4.711
4.711
4.711
4.711
4.711
4.711
4.711
4.711
4.711
4.711
4.711
4.711
4.711
4.711
4.711
4.711
4.711
4.711
4.711
4.711
4.711
4.711
4.711
4.711
4.711
4.711
4.711
4.711
4.711
4.711
4.711
4.711
4.711
4.711
4.711
4.711
4.711
4.711
4.711
4.711
4.711
4.711
4.711
4.711
4.711
4.711
4.711
4.711
4.711
4.711
4.711
4.711
4.711
4.711
4.711
4.711
4.711
4.711
4.711
4.711
4.711
4.711
4.711
4.711
4.711
4.711
4.711
4.711
4.711
4.711
4.711
4.711
4.711
4.711
4.711
4.711
4.711
4.711
4.711
4.711
4.711
4.711
4.711
4.711
4.711
4.711
4.711
4.711
4.711
4.711
4.711
4.711
4.711
4.711
4.711
4.711
4.711
4.711
4.711
4.711
4.711
4.711
4.711
4.711
4.711
4.711
4.711
4.711
4.711
4.711
4.711
4.711
4.711
4.711
4.711
4.711
4.711
4.711
4.711
4.711
4.711
4.711
4.711
4.711
4.711
4.711
4.711
4.711
4.711
4.711
4.711
4.711
4.711
4.711
4.711
4.711
4.711
4.711
4.711
4.711
4.711
4.711
4.711
4.711
4.711
4.711
4.711
4.711
4.711
4.711
4.711
4.711
4.711
4.711
4.711
4.711
4.711
4.711
4.711
4.711
4.711
4.711
4.711
4.711
4.711
4.711
4.711
4.711
4.711
4.711
4.711
4.711
4.711
4.711
4.711
4.711
4.711
4.711
4.711
4.711
4.711
4.711
4.711
4.711
4.711
4.711
4.711
4.711
4.711
4.711
4.711
4.711
4.711
4.711
4.711
4.711
4.711
4.711
4.711
4.711
4.711
4.711
4.711
4.711
4.711
4.711
4.711
4.711
4.711
4.711
4.711
4.711
4.711
4.711
4.711
4.711
4.711
4.711
4.711
4.711
4.711
4.711
4.711
4.711
4.711
4.711
4.711
4.711
4.711
4.711
4.711
4.711
4.711
4.711
4.711
4.711
4.711
4.711
4.711
4.711
4.711
4.711
4.711
4.711
4.711
4.711
4.711
4.711
4.711
4.711
4.711
4.711
4.711
4.711
4.711
4.711
4.711
4.711
4.711
4.711
4.711
4.711
4.711
4.711
4.711
4.711
4.711
4.711
4.711
4.711
4.711
4.711
4.711
4.711
4.711
4.711
4.711
4.711
4.711
4.711
4.711
4.711
4.711
4.711
4.711
4.711
4.711
4.711
4.711
4.711
4.711
4.711
4.711
4.711
4.711
4.711
4.711
4.711
4.711
4.711
4.711
4.711
4.711
4.711
4.711

SCALARS p float
LOOKUP_TABLE default 
0
0
0
0
0
0
0
0
0
0
-6339.06
-6339.06
-6335.06
-6323.84
-6305.94
-6282.16
-6250.95
-6201.67
-6119.58
-5993.45
-5816.64
-5587.1
-5306.44
-4978.76
-4609.93
-4207.05
-3778.06
-3331.44
-2875.97
-2420.54
-1973.85
-1544.32
-1139.8
-767.33
-432.759
-140.267
107.926
310.776
465.805
568.221
619.584
632.921
621.74
595.12
559.142
518.166
475.359
432.928
392.252
354.016
318.362
285.05
253.585
223.296
193.396
162.996
131.117
96.6651
58.3778
10
0
0
0
0
0
0
0
0
0
0
-6339.06
-6339.06
-6335.06
-6323.84
-6305.94
-6282.16
-6250.95
-6201.67
-6119.58
-5993.45
-5816.64
-5587.1
-5306.44
-4978.76
-4609.93
-4207.05
-3778.06
-3331.44
-2875.97
-2420.54
-1973.85
-1544.32
-1139.8
-767.33
-432.759
-140.267
107.926
310.776
465.805
568.221
619.584
632.921
621.74
595.12
559.142
518.166
475.359
432.928
392.252
354.016
318.362
285.05
253.585
223.296
193.396
162.996
131.117
96.6651
58.3778
10
0
0
0
0
0
0
0
0
0
0
-6349.42
-6349.42
-6352.88
-6358.01
-6363.55
-6362.05
-6343.02
-6296.46
-6211.81
-6079.43
-5893.93
-5654.45
-5363.35
-5025.22
-4646.15
-4233.38
-3794.87
-3339.1
-2874.8
-2410.71
-1955.46
-1517.32
-1104.06
-722.798
-379.838
-80.5086
170.795
370.268
514.478
602.445
641.051
645.32
628.361
598.147
559.71
516.841
472.474
428.749
387.032
347.997
311.767
278.064
246.352
215.929
185.995
155.678
124.085
90.383
54.1216
10
0
0
0
0
0
0
0
0
0
0
-6371.82
-6371.82
-6382.35
-6399.64
-6418.3
-6426.83
-6414.34
-6371.53
-6286.89
-6150.39
-5957.67
-5709.17
-5408.26
-5060.16
-4671.4
-4249.44
-3802.43
-3338.89
-2867.55
-2397.12
-1936.15
-1492.85
-1075.02
-689.907
-344.219
-43.982
205.565
400.323
538.213
621.036
656.503
658.037
638.325
605.611
564.947
519.968
473.505
427.691
383.957
343.082
305.281
270.338
237.738
206.782
176.663
146.542
115.621
83.2945
49.4752
10
0
0
0
0
0
0
0
0
0
0
-6399.33
-6399.33
-6413.26
-6435.53
-6458.85
-6471.87
-6464.54
-6426.41
-6343.27
-6204.1
-6005.41
-5748.92
-5439.01
-5081.68
-4684.01
-4253.86
-3799.64
-3330.02
-2853.81
-2379.71
-1916.21
-1471.44
-1053.14
-668.593
-324.568
-27.2206
218.239
408.226
541.92
622.663
658.611
661.382
642.18
608.913
567.009
520.413
472.116
424.351
378.654
335.92
296.486
260.237
226.732
195.319
165.23
135.673
105.931
75.498
44.2656
10
0
0
0
0
0
0
0
0
0
0
-6425.95
-6425.95
-6439.7
-6461.63
-6484.62
-6499.04
-6495.56
-6461.84
-6380.46
-6239.27
-6035.43
-5771.73
-5453.57
-5087.76
-4682.05
-4244.85
-3784.91
-3311.18
-2832.56
-2357.73
-1895.1
-1452.65
-1037.92
-657.953
-319.273
-27.7107
211.993
396.944
527.177
606.721
643.905
649.583
633.508
602.108
560.602
513.456
464.115
415.074
368.038
324.037
283.527
246.505
212.618
181.282
151.787
123.389
95.4089
67.3285
38.8784
10
0
0
0
0
0
0
0
0
0
0
-6448.45
-6448.45
-6459.86
-6478.4
-6498.26
-6511.86
-6510.58
-6479.74
-6399.11
-6255.52
-6046.59
-5775.97
-5449.95
-5076.23
-4663.34
-4220.3
-3756.35
-3280.68
-2802.32
-2329.93
-1871.74
-1435.46
-1028.26
-656.727
-326.838
-43.7929
188.36
367.431
494.028
572.415
610.736
619.578
608.127
581.016
542.08
496.012
446.905
397.698
350.35
306.055
265.398
228.482
195.045
164.576
136.42
109.867
84.2429
58.9693
33.6071
10
0
0
0
0
0
0
0
0
0
0
-6465.95
-6465.95
-6474.17
-6488.03
-6503.36
-6514.54
-6513.53
-6483.08
-6400.87
-6253.26
-6038.29
-5760.24
-5426.26
-5044.94
-4625.67
-4178.13
-3712.01
-3236.79
-2761.54
-2294.86
-1844.73
-1418.48
-1022.75
-663.472
-345.85
-74.2331
148.176
319.91
442.029
518.85
558.139
570.106
563.898
543.081
509.162
466.277
419.126
371.233
324.902
281.536
241.865
206.104
174.082
145.359
119.326
95.2984
72.5896
50.5604
28.6398
10
0
0
0
0
0
0
0
0
0
0
-6478.87
-6478.87
-6483.93
-6492.93
-6503.31
-6511.14
-6508.24
-6475.02
-6387.71
-6233.19
-6010.1
-5723.31
-5380.77
-4991.99
-4567.14
-4116.53
-3650.25
-3177.95
-2708.75
-2251.07
-1812.58
-1400.15
-1019.77
-676.585
-374.832
-117.839
92.1791
254.561
370.84
445.36
485.471
500.795
500.344
487.331
460.89
423.63
380.522
335.715
291.943
250.874
213.411
179.899
150.264
124.134
100.946
80.0354
60.7064
42.2774
24.0965
10
0
0
0
0
0
0
0
0
0
0
-6488.19
-6488.19
-6490.55
-6495.13
-6500.8
-6504.99
-6497.74
-6457.96
-6360.98
-6195.65
-5961.47
-5664.01
-5312.03
-4915.85
-4486.29
-4034.14
-3569.76
-3102.91
-2642.62
-2197.12
-1773.72
-1378.74
-1017.49
-694.194
-412.033
-173.155
21.3917
171.917
280.563
351.797
392.597
411.879
418.148
414.355
397.749
368.708
331.949
292.173
252.602
215.227
181.175
150.944
124.572
101.761
81.9945
64.6316
48.9815
34.3491
20.0531
10
0
0
0
0
0
0
0
0
0
0
-6495.1
-6495.1
-6495.31
-6496.12
-6497.5
-6497.8
-6483.97
-6432.54
-6320.68
-6140.07
-5891.42
-5581.16
-5218.83
-4815.36
-4382.05
-3929.95
-3469.54
-3010.57
-2561.93
-2131.57
-1726.41
-1352.25
-1013.67
-713.958
-455.167
-238.135
-62.5431
73.1612
172.005
238.792
280.221
304.421
318.975
326.221
321.755
303.495
275.393
242.578
208.79
176.408
146.832
120.753
98.336
79.3678
63.3851
49.7819
37.891
27.0362
16.5539
10
0
0
0
0
0
0
0
0
0
0
-6500.86
-6500.86
-6499.42
-6497.13
-6494.69
-6489.04
-6466.3
-6397.19
-6265.14
-6064.76
-5798.36
-5473.38
-5100
-4689.58
-4253.62
-3803.24
-3348.86
-2900.08
-2465.55
-2052.94
-1668.78
-1318.35
-1005.56
-732.844
-501.095
-309.768
-156.954
-39.4803
47.0264
108.079
150.246
180.723
205.743
226.436
236.449
231.268
213.865
189.678
163.002
136.66
112.374
91.0605
73.0321
58.1717
46.0797
36.1995
27.9103
20.5849
13.6165
10
0
0
0
0
0
0
0
0
0
0
-6506.8
-6506.8
-6504.05
-6499.28
-6493.95
-6479.99
-6441.29
-6348.43
-6191.1
-5966.93
-5680.08
-5339.02
-4954.4
-4537.74
-4100.5
-3653.62
-3207.27
-2770.77
-2352.5
-1959.77
-1598.78
-1274.36
-989.858
-746.951
-545.524
-383.645
-257.622
-162.183