# vtk DataFile Version 3.0
vtk output457
ASCII
DATASET STRUCTURED_GRID
DIMENSIONS 61 41 1
POINTS 2501 float
0 0 0
0.1 0 0
0.2 0 0
0.3 0 0
0.4 0 0
0.5 0 0
0.6 0 0
0.7 0 0
0.8 0 0
0.9 0 0
1 0 0
1.1 0 0
1.2 0 0
1.3 0 0
1.4 0 0
1.5 0 0
1.6 0 0
1.7 0 0
1.8 0 0
1.9 0 0
2 0 0
2.1 0 0
2.2 0 0
2.3 0 0
2.4 0 0
2.5 0 0
2.6 0 0
2.7 0 0
2.8 0 0
2.9 0 0
3 0 0
3.1 0 0
3.2 0 0
3.3 0 0
3.4 0 0
3.5 0 0
3.6 0 0
3.7 0 0
3.8 0 0
3.9 0 0
4 0 0
4.1 0 0
4.2 0 0
4.3 0 0
4.4 0 0
4.5 0 0
4.6 0 0
4.7 0 0
4.8 0 0
4.9 0 0
5 0 0
5.1 0 0
5.2 0 0
5.3 0 0
5.4 0 0
5.5 0 0
5.6 0 0
5.7 0 0
5.8 0 0
5.9 0 0
6 0 0
0 0.1 0
0.1 0.1 0
0.2 0.1 0
0.3 0.1 0
0.4 0.1 0
0.5 0.1 0
0.6 0.1 0
0.7 0.1 0
0.8 0.1 0
0.9 0.1 0
1 0.1 0
1.1 0.1 0
1.2 0.1 0
1.3 0.1 0
1.4 0.1 0
1.5 0.1 0
1.6 0.1 0
1.7 0.1 0
1.8 0.1 0
1.9 0.1 0
2 0.1 0
2.1 0.1 0
2.2 0.1 0
2.3 0.1 0
2.4 0.1 0
2.5 0.1 0
2.6 0.1 0
2.7 0.1 0
2.8 0.1 0
2.9 0.1 0
3 0.1 0
3.1 0.1 0
3.2 0.1 0
3.3 0.1 0
3.4 0.1 0
3.5 0.1 0
3.6 0.1 0
3.7 0.1 0
3.8 0.1 0
3.9 0.1 0
4 0.1 0
4.1 0.1 0
4.2 0.1 0
4.3 0.1 0
4.4 0.1 0
4.5 0.1 0
4.6 0.1 0
4.7 0.1 0
4.8 0.1 0
4.9 0.1 0
5 0.1 0
5.1 0.1 0
5.2 0.1 0
5.3 0.1 0
5.4 0.1 0
5.5 0.1 0
5.6 0.1 0
5.7 0.1 0
5.8 0.1 0
5.9 0.1 0
6 0.1 0
0 0.2 0
0.1 0.2 0
0.2 0.2 0
0.3 0.2 0
0.4 0.2 0
0.5 0.2 0
0.6 0.2 0
0.7 0.2 0
0.8 0.2 0
0.9 0.2 0
1 0.2 0
1.1 0.2 0
1.2 0.2 0
1.3 0.2 0
1.4 0.2 0
1.5 0.2 0
1.6 0.2 0
1.7 0.2 0
1.8 0.2 0
1.9 0.2 0
2 0.2 0
2.1 0.2 0
2.2 0.2 0
2.3 0.2 0
2.4 0.2 0
2.5 0.2 0
2.6 0.2 0
2.7 0.2 0
2.8 0.2 0
2.9 0.2 0
3 0.2 0
3.1 0.2 0
3.2 0.2 0
3.3 0.2 0
3.4 0.2 0
3.5 0.2 0
3.6 0.2 0
3.7 0.2 0
3.8 0.2 0
3.9 0.2 0
4 0.2 0
4.1 0.2 0
4.2 0.2 0
4.3 0.2 0
4.4 0.2 0
4.5 0.2 0
4.6 0.2 0
4.7 0.2 0
4.8 0.2 0
4.9 0.2 0
5 0.2 0
5.1 0.2 0
5.2 0.2 0
5.3 0.2 0
5.4 0.2 0
5.5 0.2 0
5.6 0.2 0
5.7 0.2 0
5.8 0.2 0
5.9 0.2 0
6 0.2 0
0 0.3 0
0.1 0.3 0
0.2 0.3 0
0.3 0.3 0
0.4 0.3 0
0.5 0.3 0
0.6 0.3 0
0.7 0.3 0
0.8 0.3 0
0.9 0.3 0
1 0.3 0
1.1 0.3 0
1.2 0.3 0
1.3 0.3 0
1.4 0.3 0
1.5 0.3 0
1.6 0.3 0
1.7 0.3 0
1.8 0.3 0
1.9 0.3 0
2 0.3 0
2.1 0.3 0
2.2 0.3 0
2.3 0.3 0
2.4 0.3 0
2.5 0.3 0
2.6 0.3 0
2.7 0.3 0
2.8 0.3 0
2.9 0.3 0
3 0.3 0
3.1 0.3 0
3.2 0.3 0
3.3 0.3 0
3.4 0.3 0
3.5 0.3 0
3.6 0.3 0
3.7 0.3 0
3.8 0.3 0
3.9 0.3 0
4 0.3 0
4.1 0.3 0
4.2 0.3 0
4.3 0.3 0
4.4 0.3 0
4.5 0.3 0
4.6 0.3 0
4.7 0.3 0
4.8 0.3 0
4.9 0.3 0
5 0.3 0
5.1 0.3 0
5.2 0.3 0
5.3 0.3 0
5.4 0.3 0
5.5 0.3 0
5.6 0.3 0
5.7 0.3 0
5.8 0.3 0
5.9 0.3 0
6 0.3 0
0 0.4 0
0.1 0.4 0
0.2 0.4 0
0.3 0.4 0
0.4 0.4 0
0.5 0.4 0
0.6 0.4 0
0.7 0.4 0
0.8 0.4 0
0.9 0.4 0
1 0.4 0
1.1 0.4 0
1.2 0.4 0
1.3 0.4 0
1.4 0.4 0
1.5 0.4 0
1.6 0.4 0
1.7 0.4 0
1.8 0.4 0
1.9 0.4 0
2 0.4 0
2.1 0.4 0
2.2 0.4 0
2.3 0.4 0
2.4 0.4 0
2.5 0.4 0
2.6 0.4 0
2.7 0.4 0
2.8 0.4 0
2.9 0.4 0
3 0.4 0
3.1 0.4 0
3.2 0.4 0
3.3 0.4 0
3.4 0.4 0
3.5 0.4 0
3.6 0.4 0
3.7 0.4 0
3.8 0.4 0
3.9 0.4 0
4 0.4 0
4.1 0.4 0
4.2 0.4 0
4.3 0.4 0
4.4 0.4 0
4.5 0.4 0
4.6 0.4 0
4.7 0.4 0
4.8 0.4 0
4.9 0.4 0
5 0.4 0
5.1 0.4 0
5.2 0.4 0
5.3 0.4 0
5.4 0.4 0
5.5 0.4 0
5.6 0.4 0
5.7 0.4 0
5.8 0.4 0
5.9 0.4 0
6 0.4 0
0 0.5 0
0.1 0.5 0
0.2 0.5 0
0.3 0.5 0
0.4 0.5 0
0.5 0.5 0
0.6 0.5 0
0.7 0.5 0
0.8 0.5 0
0.9 0.5 0
1 0.5 0
1.1 0.5 0
1.2 0.5 0
1.3 0.5 0
1.4 0.5 0
1.5 0.5 0
1.6 0.5 0
1.7 0.5 0
1.8 0.5 0
1.9 0.5 0
2 0.5 0
2.1 0.5 0
2.2 0.5 0
2.3 0.5 0
2.4 0.5 0
2.5 0.5 0
2.6 0.5 0
2.7 0.5 0
2.8 0.5 0
2.9 0.5 0
3 0.5 0
3.1 0.5 0
3.2 0.5 0
3.3 0.5 0
3.4 0.5 0
3.5 0.5 0
3.6 0.5 0
3.7 0.5 0
3.8 0.5 0
3.9 0.5 0
4 0.5 0
4.1 0.5 0
4.2 0.5 0
4.3 0.5 0
4.4 0.5 0
4.5 0.5 0
4.6 0.5 0
4.7 0.5 0
4.8 0.5 0
4.9 0.5 0
5 0.5 0
5.1 0.5 0
5.2 0.5 0
5.3 0.5 0
5.4 0.5 0
5.5 0.5 0
5.6 0.5 0
5.7 0.5 0
5.8 0.5 0
5.9 0.5 0
6 0.5 0
0 0.6 0
0.1 0.6 0
0.2 0.6 0
0.3 0.6 0
0.4 0.6 0
0.5 0.6 0
0.6 0.6 0
0.7 0.6 0
0.8 0.6 0
0.9 0.6 0
1 0.6 0
1.1 0.6 0
1.2 0.6 0
1.3 0.6 0
1.4 0.6 0
1.5 0.6 0
1.6 0.6 0
1.7 0.6 0
1.8 0.6 0
1.9 0.6 0
2 0.6 0
2.1 0.6 0
2.2 0.6 0
2.3 0.6 0
2.4 0.6 0
2.5 0.6 0
2.6 0.6 0
2.7 0.6 0
2.8 0.6 0
2.9 0.6 0
3 0.6 0
3.1 0.6 0
3.2 0.6 0
3.3 0.6 0
3.4 0.6 0
3.5 0.6 0
3.6 0.6 0
3.7 0.6 0
3.8 0.6 0
3.9 0.6 0
4 0.6 0
4.1 0.6 0
4.2 0.6 0
4.3 0.6 0
4.4 0.6 0
4.5 0.6 0
4.6 0.6 0
4.7 0.6 0
4.8 0.6 0
4.9 0.6 0
5 0.6 0
5.1 0.6 0
5.2 0.6 0
5.3 0.6 0
5.4 0.6 0
5.5 0.6 0
5.6 0.6 0
5.7 0.6 0
5.8 0.6 0
5.9 0.6 0
6 0.6 0
0 0.7 0
0.1 0.7 0
0.2 0.7 0
0.3 0.7 0
0.4 0.7 0
0.5 0.7 0
0.6 0.7 0
0.7 0.7 0
0.8 0.7 0
0.9 0.7 0
1 0.7 0
1.1 0.7 0
1.2 0.7 0
1.3 0.7 0
1.4 0.7 0
1.5 0.7 0
1.6 0.7 0
1.7 0.7 0
1.8 0.7 0
1.9 0.7 0
2 0.7 0
2.1 0.7 0
2.2 0.7 0
2.3 0.7 0
2.4 0.7 0
2.5 0.7 0
2.6 0.7 0
2.7 0.7 0
2.8 0.7 0
2.9 0.7 0
3 0.7 0
3.1 0.7 0
3.2 0.7 0
3.3 0.7 0
3.4 0.7 0
3.5 0.7 0
3.6 0.7 0
3.7 0.7 0
3.8 0.7 0
3.9 0.7 0
4 0.7 0
4.1 0.7 0
4.2 0.7 0
4.3 0.7 0
4.4 0.7 0
4.5 0.7 0
4.6 0.7 0
4.7 0.7 0
4.8 0.7 0
4.9 0.7 0
5 0.7 0
5.1 0.7 0
5.2 0.7 0
5.3 0.7 0
5.4 0.7 0
5.5 0.7 0
5.6 0.7 0
5.7 0.7 0
5.8 0.7 0
5.9 0.7 0
6 0.7 0
0 0.8 0
0.1 0.8 0
0.2 0.8 0
0.3 0.8 0
0.4 0.8 0
0.5 0.8 0
0.6 0.8 0
0.7 0.8 0
0.8 0.8 0
0.9 0.8 0
1 0.8 0
1.1 0.8 0
1.2 0.8 0
1.3 0.8 0
1.4 0.8 0
1.5 0.8 0
1.6 0.8 0
1.7 0.8 0
1.8 0.8 0
1.9 0.8 0
2 0.8 0
2.1 0.8 0
2.2 0.8 0
2.3 0.8 0
2.4 0.8 0
2.5 0.8 0
2.6 0.8 0
2.7 0.8 0
2.8 0.8 0
2.9 0.8 0
3 0.8 0
3.1 0.8 0
3.2 0.8 0
3.3 0.8 0
3.4 0.8 0
3.5 0.8 0
3.6 0.8 0
3.7 0.8 0
3.8 0.8 0
3.9 0.8 0
4 0.8 0
4.1 0.8 0
4.2 0.8 0
4.3 0.8 0
4.4 0.8 0
4.5 0.8 0
4.6 0.8 0
4.7 0.8 0
4.8 0.8 0
4.9 0.8 0
5 0.8 0
5.1 0.8 0
5.2 0.8 0
5.3 0.8 0
5.4 0.8 0
5.5 0.8 0
5.6 0.8 0
5.7 0.8 0
5.8 0.8 0
5.9 0.8 0
6 0.8 0
0 0.9 0
0.1 0.9 0
0.2 0.9 0
0.3 0.9 0
0.4 0.9 0
0.5 0.9 0
0.6 0.9 0
0.7 0.9 0
0.8 0.9 0
0.9 0.9 0
1 0.9 0
1.1 0.9 0
1.2 0.9 0
1.3 0.9 0
1.4 0.9 0
1.5 0.9 0
1.6 0.9 0
1.7 0.9 0
1.8 0.9 0
1.9 0.9 0
2 0.9 0
2.1 0.9 0
2.2 0.9 0
2.3 0.9 0
2.4 0.9 0
2.5 0.9 0
2.6 0.9 0
2.7 0.9 0
2.8 0.9 0
2.9 0.9 0
3 0.9 0
3.1 0.9 0
3.2 0.9 0
3.3 0.9 0
3.4 0.9 0
3.5 0.9 0
3.6 0.9 0
3.7 0.9 0
3.8 0.9 0
3.9 0.9 0
4 0.9 0
4.1 0.9 0
4.2 0.9 0
4.3 0.9 0
4.4 0.9 0
4.5 0.9 0
4.6 0.9 0
4.7 0.9 0
4.8 0.9 0
4.9 0.9 0
5 0.9 0
5.1 0.9 0
5.2 0.9 0
5.3 0.9 0
5.4 0.9 0
5.5 0.9 0
5.6 0.9 0
5.7 0.9 0
5.8 0.9 0
5.9 0.9 0
6 0.9 0
0 1 0
0.1 1 0
0.2 1 0
0.3 1 0
0.4 1 0
0.5 1 0
0.6 1 0
0.7 1 0
0.8 1 0
0.9 1 0
1 1 0
1.1 1 0
1.2 1 0
1.3 1 0
1.4 1 0
1.5 1 0
1.6 1 0
1.7 1 0
1.8 1 0
1.9 1 0
2 1 0
2.1 1 0
2.2 1 0
2.3 1 0
2.4 1 0
2.5 1 0
2.6 1 0
2.7 1 0
2.8 1 0
2.9 1 0
3 1 0
3.1 1 0
3.2 1 0
3.3 1 0
3.4 1 0
3.5 1 0
3.6 1 0
3.7 1 0
3.8 1 0
3.9 1 0
4 1 0
4.1 1 0
4.2 1 0
4.3 1 0
4.4 1 0
4.5 1 0
4.6 1 0
4.7 1 0
4.8 1 0
4.9 1 0
5 1 0
5.1 1 0
5.2 1 0
5.3 1 0
5.4 1 0
5.5 1 0
5.6 1 0
5.7 1 0
5.8 1 0
5.9 1 0
6 1 0
0 1.1 0
0.1 1.1 0
0.2 1.1 0
0.3 1.1 0
0.4 1.1 0
0.5 1.1 0
0.6 1.1 0
0.7 1.1 0
0.8 1.1 0
0.9 1.1 0
1 1.1 0
1.1 1.1 0
1.2 1.1 0
1.3 1.1 0
1.4 1.1 0
1.5 1.1 0
1.6 1.1 0
1.7 1.1 0
1.8 1.1 0
1.9 1.1 0
2 1.1 0
2.1 1.1 0
2.2 1.1 0
2.3 1.1 0
2.4 1.1 0
2.5 1.1 0
2.6 1.1 0
2.7 1.1 0
2.8 1.1 0
2.9 1.1 0
3 1.1 0
3.1 1.1 0
3.2 1.1 0
3.3 1.1 0
3.4 1.1 0
3.5 1.1 0
3.6 1.1 0
3.7 1.1 0
3.8 1.1 0
3.9 1.1 0
4 1.1 0
4.1 1.1 0
4.2 1.1 0
4.3 1.1 0
4.4 1.1 0
4.5 1.1 0
4.6 1.1 0
4.7 1.1 0
4.8 1.1 0
4.9 1.1 0
5 1.1 0
5.1 1.1 0
5.2 1.1 0
5.3 1.1 0
5.4 1.1 0
5.5 1.1 0
5.6 1.1 0
5.7 1.1 0
5.8 1.1 0
5.9 1.1 0
6 1.1 0
0 1.2 0
0.1 1.2 0
0.2 1.2 0
0.3 1.2 0
0.4 1.2 0
0.5 1.2 0
0.6 1.2 0
0.7 1.2 0
0.8 1.2 0
0.9 1.2 0
1 1.2 0
1.1 1.2 0
1.2 1.2 0
1.3 1.2 0
1.4 1.2 0
1.5 1.2 0
1.6 1.2 0
1.7 1.2 0
1.8 1.2 0
1.9 1.2 0
2 1.2 0
2.1 1.2 0
2.2 1.2 0
2.3 1.2 0
2.4 1.2 0
2.5 1.2 0
2.6 1.2 0
2.7 1.2 0
2.8 1.2 0
2.9 1.2 0
3 1.2 0
3.1 1.2 0
3.2 1.2 0
3.3 1.2 0
3.4 1.2 0
3.5 1.2 0
3.6 1.2 0
3.7 1.2 0
3.8 1.2 0
3.9 1.2 0
4 1.2 0
4.1 1.2 0
4.2 1.2 0
4.3 1.2 0
4.4 1.2 0
4.5 1.2 0
4.6 1.2 0
4.7 1.2 0
4.8 1.2 0
4.9 1.2 0
5 1.2 0
5.1 1.2 0
5.2 1.2 0
5.3 1.2 0
5.4 1.2 0
5.5 1.2 0
5.6 1.2 0
5.7 1.2 0
5.8 1.2 0
5.9 1.2 0
6 1.2 0
0 1.3 0
0.1 1.3 0
0.2 1.3 0
0.3 1.3 0
0.4 1.3 0
0.5 1.3 0
0.6 1.3 0
0.7 1.3 0
0.8 1.3 0
0.9 1.3 0
1 1.3 0
1.1 1.3 0
1.2 1.3 0
1.3 1.3 0
1.4 1.3 0
1.5 1.3 0
1.6 1.3 0
1.7 1.3 0
1.8 1.3 0
1.9 1.3 0
2 1.3 0
2.1 1.3 0
2.2 1.3 0
2.3 1.3 0
2.4 1.3 0
2.5 1.3 0
2.6 1.3 0
2.7 1.3 0
2.8 1.3 0
2.9 1.3 0
3 1.3 0
3.1 1.3 0
3.2 1.3 0
3.3 1.3 0
3.4 1.3 0
3.5 1.3 0
3.6 1.3 0
3.7 1.3 0
3.8 1.3 0
3.9 1.3 0
4 1.3 0
4.1 1.3 0
4.2 1.3 0
4.3 1.3 0
4.4 1.3 0
4.5 1.3 0
4.6 1.3 0
4.7 1.3 0
4.8 1.3 0
4.9 1.3 0
5 1.3 0
5.1 1.3 0
5.2 1.3 0
5.3 1.3 0
5.4 1.3 0
5.5 1.3 0
5.6 1.3 0
5.7 1.3 0
5.8 1.3 0
5.9 1.3 0
6 1.3 0
0 1.4 0
0.1 1.4 0
0.2 1.4 0
0.3 1.4 0
0.4 1.4 0
0.5 1.4 0
0.6 1.4 0
0.7 1.4 0
0.8 1.4 0
0.9 1.4 0
1 1.4 0
1.1 1.4 0
1.2 1.4 0
1.3 1.4 0
1.4 1.4 0
1.5 1.4 0
1.6 1.4 0
1.7 1.4 0
1.8 1.4 0
1.9 1.4 0
2 1.4 0
2.1 1.4 0
2.2 1.4 0
2.3 1.4 0
2.4 1.4 0
2.5 1.4 0
2.6 1.4 0
2.7 1.4 0
2.8 1.4 0
2.9 1.4 0
3 1.4 0
3.1 1.4 0
3.2 1.4 0
3.3 1.4 0
3.4 1.4 0
3.5 1.4 0
3.6 1.4 0
3.7 1.4 0
3.8 1.4 0
3.9 1.4 0
4 1.4 0
4.1 1.4 0
4.2 1.4 0
4.3 1.4 0
4.4 1.4 0
4.5 1.4 0
4.6 1.4 0
4.7 1.4 0
4.8 1.4 0
4.9 1.4 0
5 1.4 0
5.1 1.4 0
5.2 1.4 0
5.3 1.4 0
5.4 1.4 0
5.5 1.4 0
5.6 1.4 0
5.7 1.4 0
5.8 1.4 0
5.9 1.4 0
6 1.4 0
0 1.5 0
0.1 1.5 0
0.2 1.5 0
0.3 1.5 0
0.4 1.5 0
0.5 1.5 0
0.6 1.5 0
0.7 1.5 0
0.8 1.5 0
0.9 1.5 0
1 1.5 0
1.1 1.5 0
1.2 1.5 0
1.3 1.5 0
1.4 1.5 0
1.5 1.5 0
1.6 1.5 0
1.7 1.5 0
1.8 1.5 0
1.9 1.5 0
2 1.5 0
2.1 1.5 0
2.2 1.5 0
2.3 1.5 0
2.4 1.5 0
2.5 1.5 0
2.6 1.5 0
2.7 1.5 0
2.8 1.5 0
2.9 1.5 0
3 1.5 0
3.1 1.5 0
3.2 1.5 0
3.3 1.5 0
3.4 1.5 0
3.5 1.5 0
3.6 1.5 0
3.7 1.5 0
3.8 1.5 0
3.9 1.5 0
4 1.5 0
4.1 1.5 0
4.2 1.5 0
4.3 1.5 0
4.4 1.5 0
4.5 1.5 0
4.6 1.5 0
4.7 1.5 0
4.8 1.5 0
4.9 1.5 0
5 1.5 0
5.1 1.5 0
5.2 1.5 0
5.3 1.5 0
5.4 1.5 0
5.5 1.5 0
5.6 1.5 0
5.7 1.5 0
5.8 1.5 0
5.9 1.5 0
6 1.5 0
0 1.6 0
0.1 1.6 0
0.2 1.6 0
0.3 1.6 0
0.4 1.6 0
0.5 1.6 0
0.6 1.6 0
0.7 1.6 0
0.8 1.6 0
0.9 1.6 0
1 1.6 0
1.1 1.6 0
1.2 1.6 0
1.3 1.6 0
1.4 1.6 0
1.5 1.6 0
1.6 1.6 0
1.7 1.6 0
1.8 1.6 0
1.9 1.6 0
2 1.6 0
2.1 1.6 0
2.2 1.6 0
2.3 1.6 0
2.4 1.6 0
2.5 1.6 0
2.6 1.6 0
2.7 1.6 0
2.8 1.6 0
2.9 1.6 0
3 1.6 0
3.1 1.6 0
3.2 1.6 0
3.3 1.6 0
3.4 1.6 0
3.5 1.6 0
3.6 1.6 0
3.7 1.6 0
3.8 1.6 0
3.9 1.6 0
4 1.6 0
4.1 1.6 0
4.2 1.6 0
4.3 1.6 0
4.4 1.6 0
4.5 1.6 0
4.6 1.6 0
4.7 1.6 0
4.8 1.6 0
4.9 1.6 0
5 1.6 0
5.1 1.6 0
5.2 1.6 0
5.3 1.6 0
5.4 1.6 0
5.5 1.6 0
5.6 1.6 0
5.7 1.6 0
5.8 1.6 0
5.9 1.6 0
6 1.6 0
[...]
CELL_DATA 2400
SCALARS phi float
LOOKUP_TABLE default 
4.711
4.711
4.711
4.711
4.711
4.711
4.711
4.711
4.711
4.711
4.711
4.711
4.711
4.711
4.711
4.711
4.711
4.711
4.711
4.711
4.711
4.711
4.711
4.711
4.711
4.711
4.711
4.711
4.711
4.711
4.711
4.711
4.711
4.711
4.711
4.711
4.711
4.711
4.711
4.711
4.711
4.711
4.711
4.711
4.711
4.711
4.711
4.711
4.711
4.711
4.711
4.711
4.711
4.711
4.711
4.711
4.711
4.711
4.711
4.711
4.711
4.711
4.711
4.711
4.711
4.711
4.711
4.711
4.711
4.711
4.711
4.711
4.711
4.711
4.711
4.711
4.711
4.711
4.711
4.711
4.711
4.711
4.711
4.711
4.711
4.711
4.711
4.711
4.711
4.711
4.711
4.711
4.711
4.711
4.711
4.711
4.711
4.711
4.711
4.711
4.711
4.711
4.711
4.711
4.711
4.711
4.711
4.711
4.711
4.711
4.711
4.711
4.711
4.711
4.711
4.711
4.711
4.711
4.711
4.711
4.711
4.711
4.711
4.711
4.711
4.711
4.711
4.711
4.711
4.711
4.711
4.711
4.711
4.711
4.711
4.711
4.711
4.711
4.711
4.711
4.711
4.711
4.711
4.711
4.711
4.711
4.711
4.711
4.711
4.711
4.711
4.711
4.711
4.711
4.711
4.711
4.711
4.711
4.711
4.711
4.711
4.711
4.711
4.711
4.711
4.711
4.711
4.711
4.711
4.711
4.711
4.711
4.711
4.711
4.711
4.711
4.711
4.711
4.711
4.711
4.711
4.711
4.711
4.711
4.711
4.711
4.711
4.711
4.711
4.711
4.711
4.711
4.711
4.711
4.711
4.711
4.711
4.711
4.711
4.711
4.711
4.711
4.711
4.711
4.711
4.711
4.711
4.711
4.711
4.711
4.711
4.711
4.711
4.711
4.711
4.711
4.711
4.711
4.711
4.711
4.711
4.711
4.711
4.711
4.711
4.711
4.711
4.711
4.711
4.711
4.711
4.711
4.711
4.711
4.711
4.711
4.711
4.711
4.711
4.711
4.711
4.711
4.711
4.711
4.711
4.711
4.711
4.711
4.711
4.711
4.711
4.711
4.711
4.711
4.711
4.711
4.711
4.711
4.711
4.711
4.711
4.711
4.711
4.711
4.711
4.711
4.711
4.711
4.711
4.711
4.711
4.711
4.711
4.711
4.711
4.711
4.711
4.711
4.711
4.711
4.711
4.711
4.711
4.711
4.711
4.711
4.711
4.711
4.711
4.711
4.711
4.711
4.711
4.711
4.711
4.711
4.711
4.711
4.711
4.711
4.711
4.711
4.711
4.711
4.711
4.711
4.711
4.711
4.711
4.711
4.711
4.711
4.711
4.711
4.711
4.711
4.711
4.711
4.711
4.711
4.711
4.711
4.711
4.711
4.711
4.711
4.711
4.711
4.711
4.711
4.711
4.711
4.711
4.711
4.711
4.711
4.711
4.711
4.711
4.711
4.711
4.711
4.711
4.711
4.711
4.711
4.711
4.711
4.711
4.711
4.711
4.711
4.711
4.711
4.711
4.711
4.711
4.711
4.711
4.711
4.711
4.711
4.711
4.711
4.711
4.711
4.711
4.711
4.711
4.711
4.711
4.711
4.711
4.711
4.711
4.711
4.711
4.711
4.711
4.711
4.711
4.711
4.711
4.711
4.711
4.711
4.711
4.711
4.711
4.711
4.711
4.711
4.711
4.711
4.711
4.711
4.711
4.711
4.711
4.711
4.711
4.711
4.711
4.711
4.711
4.711
4.711
4.711
4.711
4.711
4.711
4.711
4.711
4.711
4.711
4.711
4.711
4.711
4.711
4.711
4.711
4.711
4.711
4.711
4.711
4.711
4.711
4.711
4.711
4.711
4.711
4.711
4.711
4.711
4.711
4.711
4.711
4.711
4.711
4.711
4.711
4.711
4.711
4.711
4.711
4.711
4.711
4.711
4.711
4.711
4.711
4.711
4.711
4.711
4.711
4.711
4.711
4.711
4.711
4.711
4.711
4.711
4.711
4.711
4.711
4.711
4.711
4.711
4.711
4.711
4.711
4.711
4.711
4.711
4.711
4.711
4.711
4.711
4.711
4.711
4.711
4.711
4.711
4.711
4.711
4.711
4.711
4.711
4.711
4.711
4.711
4.711
4.711
4.711
4.711
4.711
4.711
4.711
4.711
4.711
4.711
4.711
4.711
4.711
4.711
4.711
4.711
4.711
4.711
4.711
4.711
4.711
4.711
4.711
4.711
4.711
4.711
4.711
4.711
4.711
4.711
4.711
4.711
4.711
4.711
4.711
4.711
4.711
4.711
4.711
4.711
4.711
4.711
4.711
4.711
4.711
4.711
4.711
4.711
4.711
4.711
4.711
4.711
4.711
4.711
4.711
4.711
4.711
4.711
4.711
4.711
4.711
4.711
4.711
4.711
4.711
4.711
4.711
4.711
4.711
4.711
4.711
4.711
4.711
4.711
4.711
4.711
4.711
4.711
4.711
4.711
4.711
4.711
4.711
4.711
4.711
4.711
4.711
4.711
4.711
4.711
4.711
4.711
4.711
4.711
4.711
4.711
4.711
4.711
4.711
4.711
4.711
4.711
4.711
4.711
4.711
4.711
4.711
4.711
4.711
4.711
4.711
4.711
4.711
4.711
4.711
4.711
4.711
4.711
4.711
4.711
4.711
4.711
4.711
4.711
4.711
4.711
4.711
4.711
4.711
4.711
4.711
4.711
4.711
4.711
4.711
4.711
4.711
4.711
4.711
4.711
4.711
4.711
4.711
4.711
4.711
4.711
4.711
4.711
4.711
4.711
4.711
4.711
4.711
4.711
4.711
4.711
4.711
4.711
4.711
4.711
4.711
4.711
4.711
4.711
4.711
4.711
4.711
4.711
4.711
4.711
4.711
4.711
4.711
4.711
4.711
4.711
4.711
4.711
4.711
4.711
4.711
4.711
4.711
4.711
4.711
4.711
4.711
4.711
4.711
4.711
4.711
4.711
4.711
4.711
4.711
4.711
4.711
4.711
4.711
4.711
4.711
4.711
4.711
4.711
4.711
4.711
4.711
4.711
4.711
4.711
4.711
4.711
4.711
4.711
4.711
4.711
4.711
4.711
4.711
4.711
4.711
4.711
4.711
4.711
4.711
4.711
4.711
4.711
4.711
4.711
4.711
4.711
4.711
4.711
4.711
4.711
4.711
4.711
4.711
4.711
4.711
4.711
4.711
4.711
4.711
4.711
4.711
4.711
4.711
4.711
4.711
4.711
4.711
4.711
4.711
4.711
4.711
4.711
4.711
4.711
4.711
4.711
4.711
4.711
4.711
4.711
4.711
4.711
4.711
4.711
4.711
4.711
4.711
4.711
4.711
4.711
4.711
4.711
4.711
4.711
4.711
4.711
4.711
4.711
4.711
4.711
4.711
4.711
4.711
4.711
4.711
4.711
4.711
4.711
4.711
4.711
4.711
4.711
4.711
4.711
4.711
4.711
4.711
4.711
4.711
4.711
4.711
4.711
4.711
4.711
4.711
4.711
4.711
4.711
4.711
4.711
4.711
4.711
4.711
4.711
4.711
4.711
4.711
4.711
4.711
4.711
4.711
4.711
4.711
4.711
4.711
4.711
4.711
4.711
4.711
4.711
4.711
4.711
4.711
4.711
4.711
4.711
4.711
4.711
4.711
4.711
4.711
4.711
4.711
4.711
4.711
4.711
4.711
4.711
4.711
4.711
4.711
4.711
4.711
4.711
4.711
4.711
4.711
4.711
4.711
4.711
4.711
4.711
4.711
4.711
4.711
4.711
4.711
4.711
4.711
4.711
4.711
4.711
4.711
4.711
4.711
4.711
4.711
4.711
4.711
4.711
4.711
4.711
4.711
4.711
4.711
4.711
4.711
4.711
4.711
4.711
4.711
4.711
4.711
4.711
4.711
4.711
4.711
4.711
4.711
4.711
4.711
4.711
4.711
4.711
4.711
4.711
4.711
4.711
4.711
4.711
4.711
4.711
4.711
4.711
4.711
4.711
4.711
4.711
4.711
4.711
4.711
4.711
4.711
4.711
4.711
4.711
4.711
4.711
4.711
4.711
4.711
4.711
4.711
4.711
4.711
4.711
4.711
4.711
4.711
4.711
4.711
4.711
4.711
4.711
4.711
4.711
4.711
4.711
4.711
4.711
4.711
4.711
4.711
4.711
4.711
4.711
4.711
4.711
4.711
4.711
4.711
4.711
4.711
4.711
4.711
4.711
4.711
4.711
4.711
4.711
4.711
4.711
4.711
4.711
4.711
4.711
4.711
4.711
4.711
4.711
4.711
4.711
4.711
4.711
4.711
4.711
4.711
4.711
4.711
4.711
4.711
4.711
4.711
4.711
4.711
4.711
4.711
4.711
4.711
4.711
4.711
4.711
4.711
4.711
4.711
4.711
4.711
4.711
4.711
4.711
4.711
4.711
4.711
4.711
4.711
4.711
4.711
4.711
4.711
4.711
4.711
4.711
4.711
4.711
4.711
4.711
4.711
4.711
4.711
4.711
4.711
4.711
4.711
4.711
4.711
4.711
4.711
4.711
4.711
4.711
4.711
4.711
4.711
4.711
4.711
4.711
4.711
4.711
4.711
4.711
4.711
4.711
4.711
4.711
4.711
4.711
4.711
4.711
4.711
4.711
4.711
4.711
4.711
4.711
4.711
4.711
4.711
4.711
4.711
4.711
4.711
4.711
4.711
4.711
4.711
4.711
4.711
4.711
4.711
4.711
4.711
4.711
4.711
4.711
4.711
4.711
4.711
4.711
4.711
4.711
4.711
4.711
4.711
4.711
4.711
4.711
4.711
4.711
4.711
4.711
4.711
4.711
4.711
4.711
4.711
4.711
4.711
4.711
4.711
4.711
4.711
4.711
4.711
4.711
4.711
4.711
4.711
4.711
4.711
4.711
4.711
4.711
4.711
4.711
4.711
4.711
4.711
4.711
4.711
4.711
4.711
4.711
4.711
4.711
4.711
4.711
4.711
4.711
4.711
4.711
4.711
4.711
4.711
4.711
4.711
4.711
4.711
4.711
4.711
4.711
4.711
4.711
4.711
4.711
4.711
4.711
4.711
4.711
4.711
4.711
4.711
4.711
4.711
4.711
4.711
4.711
4.711
4.711
4.711
4.711
4.711
4.711
4.711
4.711
4.711
4.711
4.711
4.711
4.711
4.711
4.711
4.711
4.711
4.711
4.711
4.711
4.711
4.711
4.711
4.711
4.711
4.711
4.711
4.711
4.711
4.711
4.711
4.711
4.711
4.711
4.711
4.711
4.711
4.711
4.711
4.711
4.711
4.711
4.711
4.711
4.711
4.711
4.711
4.711
4.711
4.711
4.711
4.711
4.711
4.711
4.711
4.711
4.711
4.711
4.711
4.711
4.711
4.711
4.711
4.711
4.711
4.711
4.711
4.711
4.711
4.711
4.711
4.711
4.711
4.711
4.711
4.711
4.711
4.711
4.711
4.711
4.711
4.711
4.711
4.711
4.711
4.711
4.711
4.711
4.711
4.711
4.711
4.711
4.711
4.711
4.711
4.711
4.711
4.711
4.711
4.711
4.711
4.711
4.711
4.711
4.711
4.711
4.711
4.711
4.711
4.711
4.711
4.711
4.711
4.711
4.711
4.711
4.711
4.711
4.711
4.711
4.711
4.711
4.711
4.711
4.711
4.711
4.711
4.711
4.711
4.711
4.711
4.711
4.711
4.711
4.711
4.711
4.711
4.711
4.711
4.711
4.711
4.711
4.711
4.711
4.711
4.711
4.711
4.711
4.711
4.711
4.711
4.711
4.711
4.711
4.711
4.711
4.711
4.711
4.711
4.711
4.711
4.711
4.711
4.711
4.711
4.711
4.711
4.711
4.711
4.711
4.711
4.711
4.711
4.711
4.711
4.711
4.711
4.711
4.711
4.711
4.711
4.711
4.711
4.711
4.711
4.711
4.711
4.711
4.711
4.711
4.711
4.711
4.711
4.711
4.711
4.711
4.711
4.711
4.711
4.711
4.711
4.711
4.711
4.711
4.711
4.711
4.711
4.711
4.711
4.711
4.711
4.711
4.711
4.711
4.711
4.711
4.711
4.711
4.711
4.711
4.711
4.711
4.711
4.711
4.711
4.711
4.711
4.711
4.711
4.711
4.711
4.711
4.711
4.711
4.711
4.711
4.711
4.711
4.711
4.711
4.711
4.711
4.711
4.711
4.711
4.711
4.711
4.711
4.711
4.711
4.711
4.711
4.711
4.711
4.711
4.711
4.711
4.711
4.711
4.711
4.711
4.711
4.711
4.711
4.711
4.711
4.711
4.711
4.711
4.711
4.711
4.711
4.711
4.711
4.711
4.711
4.711
4.711
4.711
4.711
4.711
4.711
4.711
4.711
4.711
4.711
4.711
4.711
4.711
4.711
4.711
4.711
4.711
4.711
4.711
4.711
4.711
4.711
4.711
4.711
4.711
4.711
4.711
4.711
4.711
4.711
4.711
4.711
4.711
4.711
4.711
4.711
4.711
4.711
4.711
4.711
4.711
4.711
4.711
4.711
4.711
4.711
4.711
4.711
4.711
4.711
4.711
4.711
4.711
4.711
4.711
4.711
4.711
4.711
4.711
4.711
4.711
4.711
4.711
4.711
4.711
4.711
4.711
4.711
4.711
4.711
4.711
4.711
4.711
4.711
4.711
4.711
4.711
4.711
4.711
4.711
4.711
4.711
4.711
4.711
4.711
4.711
4.711
4.711
4.711
4.711
4.711
4.711
4.711
4.711
4.711
4.711
4.711
4.711
4.711
4.711
4.711
4.711
4.711
4.711
4.711
4.711
4.711
4.711
4.711
4.711
4.711
4.711
4.711
4.711
4.711
4.711
4.711
4.711
4.711
4.711
4.711
4.711
4.711
4.711
4.711
4.711
4.711
4.711
4.711
4.711
4.711
4.711
4.711
4.711
4.711
4.711
4.711
4.711
4.711
4.711
4.711
4.711
4.711
4.711
4.711
4.711
4.711
4.711
4.711
4.711
4.711
4.711
4.711
4.711
4.711
4.711
4.711
4.711
4.711
4.711
4.711
4.711
4.711
4.711
4.711
4.711
4.711
4.711
4.711
4.711
4.711
4.711
4.711
4.711
4.711
4.711
4.711
4.711
4.711
4.711
4.711
4.711
4.711
4.711
4.711
4.711
4.711
4.711
4.711
4.711
4.711
4.711
4.711
4.711
4.711
4.711
4.711
4.711
4.711
4.711
4.711
4.711
4.711
4.711
4.711
4.711
4.711
4.711
4.711
4.711
4.711
4.711
4.711
4.711
4.711
4.711
4.711
4.711
4.711
4.711
4.711
4.711
4.711
4.711
4.711
4.711
4.711
4.711
4.711
4.711
4.711
4.711
4.711
4.711
4.711
4.711
4.711
4.711
4.711
4.711
4.711
4.711
4.711
4.711
4.711
4.711
4.711
4.711
4.711
4.711
4.711
4.711
4.711
4.711
4.711
4.711
4.711
4.711
4.711
4.711
4.711
4.711
4.711
4.711
4.711
4.711
4.711
4.711
4.711
4.711
4.711
4.711
4.711
4.711
4.711
4.711
4.711
4.711
4.711
4.711
4.711
4.711
4.711
4.711
4.711
4.711
4.711
4.711
4.711
4.711
4.711
4.711
4.711
4.711
4.711
4.711
4.711
4.711
4.711
4.711
4.711
4.711
4.711
4.711
4.711
4.711
4.711
4.711
4.711
4.711
4.711
4.711
4.711
4.711
4.711
4.711
4.711
4.711
4.711
4.711
4.711
4.711
4.711
4.711
4.711
4.711
4.711
4.711
4.711
4.711
4.711
4.711
4.711
4.711
4.711
4.711
4.711
4.711
4.711
4.711
4.711
4.711
4.711
4.711
4.711
4.711
4.711
4.711
4.711
4.711
4.711
4.711
4.711
4.711
4.711
4.711
4.711
4.711
4.711
4.711
4.711
4.711
4.711
4.711
4.711
4.711
4.711
4.711
4.711
4.711
4.711
4.711
4.711
4.711
4.711
4.711
4.711
4.711
4.711
4.711
4.711
4.711
4.711
4.711
4.711
4.711
4.711
4.711
4.711
4.711
4.711
4.711
4.711
4.711
4.711
4.711
4.711
4.711
4.711
4.711
4.711
4.711
4.711
4.711
4.711
4.711
4.711
4.711
4.711
4.711
4.711
4.711
4.711
4.711
4.711
4.711
4.711
4.711
4.711
4.711
4.711
4.711
4.711
4.711
4.711
4.711
4.711
4.711
4.711
4.711
4.711
4.711
4.711
4.711
4.711
4.711
4.711
4.711
4.711
4.711
4.711
4.711
4.711
4.711
4.711
4.711
4.711
4.711
4.711
4.711
4.711
4.711
4.711
4.711
4.711
4.711
4.711
4.711
4.711
4.711
4.711
4.711
4.711
4.711
4.711
4.711
4.711
4.711
4.711
4.711
4.711
4.711
4.711
4.711
4.711
4.711
4.711
4.711
4.711
4.711
4.711
4.711
4.711
4.711
4.711
4.711
4.711
4.711
4.711
4.711
4.711
4.711
4.711
4.711
4.711
4.711
4.711
4.711
4.711
4.711
4.711
4.711
4.711
4.711
4.711
4.711
4.711
4.711
4.711
4.711
4.711
4.711
4.711
4.711
4.711
4.711
4.711
4.711
4.711
4.711
4.711
4.711
4.711
4.711
4.711
4.711
4.711
4.711
4.711
4.711
4.711
4.711
4.711
4.711
4.711
4.711
4.711
4.711
4.711
4.711
4.711
4.711
4.711
4.711
4.711
4.711
4.711
4.711
4.711
4.711
4.711
4.711
4.711
4.711
4.711
4.711
4.711
4.711
4.711
4.711
4.711
4.711
4.711
4.711
4.711
4.711
4.711
4.711
4.711
4.711
4.711
4.711
4.711
4.711
4.711
4.711
4.711
4.711
4.711
4.711
4.711
4.711
4.711
4.711
4.711
4.711
4.711
4.711
4.711
4.711
4.711
4.711
4.711
4.711
4.711
4.711
4.711
4.711
4.711
4.711
4.711
4.711
4.711
4.711
4.711
4.711
4.711
4.711
4.711
4.711
4.711
4.711
4.711
4.711
4.711
4.711
4.711
4.711
4.711
4.711
4.711
4.711
4.711
4.711
4.711
4.711
4.711
4.711
4.711
4.711
4.711
4.711
4.711
4.711
4.711
4.711
4.711
4.711
4.711
4.711
4.711
4.711
4.711
4.711
4.711
4.711
4.711
4.711
4.711
4.711
4.711
4.711
4.711
4.711
4.711
4.711
4.711
4.711
4.711
4.711
4.711
4.711
4.711
4.711
4.711
4.711
4.711
4.711
4.711
4.711
4.711
4.711
4.711
4.711
4.711
4.711
4.711
4.711
4.711
4.711
4.711
4.711
4.711
4.711
4.711
4.711
4.711
4.711
4.711
4.711
4.711
4.711
4.711
4.711
4.711
4.711
4.711
4.711
4.711
4.711
4.711
4.711
4.711
4.711
4.711
4.711
4.711
4.711
4.711
4.711
4.711
4.711
4.711
4.711
4.711
4.711
4.711
4.711
4.711
4.711
4.711
4.711
4.711
4.711
4.711
4.711
4.711
4.711
4.711
4.711
4.711
4.711
4.711
4.711
4.711
4.711
4.711
4.711
4.711
4.711
4.711
4.711
4.711
4.711
4.711
4.711
4.711
4.711
4.711
4.711
4.711
4.711
4.711
4.711
4.711
4.711
4.711
4.711
4.711
4.711
4.711
4.711
4.711
4.711
4.711
4.711
4.711
4.711
4.711
4.711
4.711
4.711
4.711
4.711
4.711
4.711
4.711
4.711
4.711
4.711
4.711
4.711
4.711
4.711
4.711
4.711
4.711
4.711
4.711
4.711
4.711
4.711
4.711
4.711
4.711
4.711
4.711
4.711
4.711
4.711
4.711
4.711
4.711
4.711
4.711
4.711
4.711
4.711
4.711
4.711
4.711
4.711
4.711
4.711
4.711
4.711
4.711
4.711
4.711
4.711
4.711
4.711
4.711
4.711
4.711
4.711
4.711
4.711
4.711
4.711
4.711
4.711
4.711
4.711
4.711
4.711
4.711
4.711
4.711
4.711
4.711
4.711
4.711
4.711
4.711
4.711
4.711
4.711
4.711
4.711
4.711
4.711
4.711
4.711
4.711
4.711
4.711
4.711
4.711
4.711
4.711
4.711
4.711
4.711
4.711
4.711
4.711
4.711
4.711
4.711
4.711
4.711
4.711
4.711
4.711
4.711
4.711
4.711
4.711
4.711
4.711
4.711
4.711
4.711
4.711
4.711
4.711
4.711
4.711
4.711
4.711
4.711
4.711
4.711
4.711
4.711
4.711
4.711
4.711
4.711
4.711
4.711
4.711
4.711
4.711
4.711
4.711
4.711
4.711
4.711
4.711
4.711
4.711
4.711
4.711
4.711
4.711
4.711
4.711
4.711
4.711
4.711
4.711
4.711
4.711
4.711
4.711
4.711
4.711
4.711
4.711
4.711
4.711
4.711
4.711
4.711
4.711
4.711
4.711
4.711
4.711
4.711
4.711
4.711
4.711
4.711
4.711
4.711
4.711
4.711
4.711
4.711
4.711
4.711
4.711
4.711
4.711
4.711
4.711
4.711
4.711

SCALARS p float
LOOKUP_TABLE default 
0
0
0
0
0
0
0
0
0
0
-9771.84
-9771.84
-9620.05
-9410.22
-9142.12
-8814.92
-8429.43
-7989.35
-7501.38
-6974.54
-6419.27
-5846.6
-5267.44
-4692.22
-4130.59
-3591.36
-3082.39
-2610.59
-2181.91
-1801.43
-1473.65
-1202.99
-993.394
-844.336
-744.596
-676.165
-625.187
-583.937
-548.157
-515.433
-484.419
-454.395
-425
-396.068
-367.539
-339.399
-311.656
-284.324
-257.414
-230.936
-204.893
-179.283
-154.098
-129.326
-104.951
-80.9603
-57.3442
-34.111
-11.3028
10
0
0
0
0
0
0
0
0
0
0
-9771.84
-9771.84
-9620.05
-9410.22
-9142.12
-8814.92
-8429.43
-7989.35
-7501.38
-6974.54
-6419.27
-5846.6
-5267.44
-4692.22
-4130.59
-3591.36
-3082.39
-2610.59
-2181.91
-1801.43
-1473.65
-1202.99
-993.394
-844.336
-744.596
-676.165
-625.187
-583.937
-548.157
-515.433
-484.419
-454.395
-425
-396.068
-367.539
-339.399
-311.656
-284.324
-257.414
-230.936
-204.893
-179.283
-154.098
-129.326
-104.951
-80.9603
-57.3442
-34.111
-11.3028
10
0
0
0
0
0
0
0
0
0
0
-10022.3
-10022.3
-9869.52
-9650.5
-9361.47
-9002.25
-8576.63
-8091.92
-7558.02
-6986.45
-6389.47
-5779.4
-5168.09
-4566.68
-3985.36
-3433.3
-2918.58
-2448.19
-2028.04
-1663.05
-1357.14
-1112.81
-929.721
-802.036
-717.113
-659.067
-615.208
-578.346
-545.03
-513.611
-483.26
-453.56
-424.32
-395.466
-366.984
-338.887
-311.192
-283.917
-257.076
-230.677
-204.721
-179.203
-154.113
-129.433
-105.145
-81.2247
-57.6504
-34.3987
-11.4313
10
0
0
0
0
0
0
0
0
0
0
-10253.2
-10253.2
-10104.9
-9881.55
-9576.88
-9191.01
-8730.26
-8205.37
-7629.53
-7016.95
-6381.88
-5738
-5098.14
-4474.03
-3876.25
-3314.14
-2795.75
-2327.83
-1915.82
-1563.76
-1274.1
-1047.09
-879.682
-764.281
-688.634
-638.12
-600.385
-568.133
-538.032
-508.75
-479.785
-450.978
-422.315
-393.843
-365.627
-337.728
-310.196
-283.065
-256.36
-230.093
-204.269
-178.882
-153.92
-129.363
-105.185
-81.3537
-57.8331
-34.5767
-11.516
10
0
0
0
0
0
0
0
0
0
0
-10463.1
-10463.1
-10324.8
-10102.1
-9786.48
-9378.1
-8885.97
-8324.39
-7709.99
-7059.75
-6389.95
-5715.65
-5050.53
-4406.81
-3795.28
-3225.23
-2704.47
-2239.26
-1834.24
-1492.35
-1214.55
-999.308
-842.007
-734.38
-664.717
-619.317
-586.014
-557.356
-529.984
-502.693
-475.151
-447.353
-419.405
-391.449
-363.615
-336.013
-308.723
-281.804
-255.292
-229.207
-203.558
-178.34
-153.54
-129.134
-105.09
-81.3697
-57.9257
-34.7015
-11.627
10
0
0
0
0
0
0
0
0
0
0
-10651.3
-10651.3
-10528
-10310.8
-9987.93
-9560.08
-9039.24
-8443.63
-7793.45
-7108.52
-6407.09
-5705.51
-5018.18
-4357.66
-3734.76
-3158.55
-2636.4
-2173.9
-1774.79
-1440.89
-1171.86
-964.923
-814.555
-712.251
-646.705
-604.776
-574.411
-548.1
-522.558
-496.684
-470.235
-443.277
-415.981
-388.533
-361.107
-333.841
-306.841
-280.179
-253.904
-228.043
-202.606
-177.59
-152.979
-128.749
-104.861
-81.2733
-57.9329
-34.7819
-11.757
10
0
0
0
0
0
0
0
0
0
0
-10819
-10819
-10714.2
-10505.9
-10178.5
-9733.11
-9185.29
-8557.59
-7873.95
-7156.97
-6426.78
-5700.87
-4994.2
-4319.51
-3687.47
-3106.79
-2584.23
-2124.63
-1730.82
-1403.56
-1141.49
-940.946
-795.878
-697.695
-635.306
-595.771
-567.056
-541.771
-516.935
-491.648
-465.727
-439.249
-412.387
-385.331
-358.259
-331.316
-304.615
-278.233
-252.223
-226.615
-201.418
-176.629
-152.232
-128.197
-104.486
-81.0529
-57.8453
-34.8075
-11.884
10
0
0
0
0
0
0
0
0
0
0
-10967.9
-10967.9
-10882.8
-10685.6
-10355.1
-9892.87
-9318.99
-8660.61
-7945.47
-7198.85
-6442.62
-5695.19
-4971.97
-4285.68
-3646.71
-3063.29
-2541.52
-2085.42
-1696.92
-1375.89
-1120.11
-925.303
-785.061
-690.697
-631.102
-593.218
-564.962
-539.314
-513.916
-488.222
-462.117
-435.635
-408.889
-382.028
-355.197
-328.52
-302.096
-275.995
-250.262
-224.923
-199.987
-175.445
-151.279
-127.459
-103.946
-80.6927
-57.6494
-34.764
-11.9869
10
0
0
0
0
0
0
0
0
0
0
-11099.3
-11099.3
-11032.6
-10847.1
-10513.5
-10034.5
-9434.87
-8746.88
-8002
-7228.03
-6448.36
-5682.19
-4945.13
-4249.8
-3606.19
-3021.93
-2502.44
-2050.92
-1668.48
-1354.17
-1105.1
-916.463
-781.53
-691.38
-634.589
-597.694
-568.635
-541.14
-513.829
-486.669
-459.612
-432.593
-405.608
-378.711
-351.979
-325.487
-299.3
-273.463
-248.009
-222.95
-198.288
-174.011
-150.096
-126.512
-103.221
-80.1766
-57.3319
-34.6382
-12.0497
10
0
0
0
0
0
0
0
0
0
0
-11211.5
-11211.5
-11160.7
-10986.6
-10649
-10152.3
-9527.12
-8810.49
-8037.53
-7238.42
-6437.86
-5655.64
-4907.46
-4205.67
-3559.8
-2976.85
-2461.51
-2016.22
-1641.33
-1335.17
-1094.2
-913.148
-784.829
-699.82
-645.984
-609.232
-577.88
-546.973
-516.423
-486.791
-458.071
-430.027
-402.477
-375.332
-348.566
-322.181
-296.19
-270.604
-245.428
-220.659
-196.288
-172.295
-148.654
-125.333
-102.294
-79.4918
-56.8827
-34.4207
-12.062
10
0
0
0
0
0
0
0
0
0
0
-11303.1
-11303.1
-11264.7
-11099.5
-10755.9
-10240.5
-9589.64
-8845.22
-8045.75
-7223.58
-6404.59
-5609.02
-4852.49
-4146.99
-3501.47
-2922.29
-2413.44
-1976.66
-1611.56
-1315.8
-1085.24
-914.026
-794.3
-715.691
-664.804
-626.919
-591.533
-555.7
-520.794
-487.91
-456.997
-427.581
-399.24
-371.706
-344.822
-318.5
-292.687
-267.351
-242.464
-218.004
-193.947
-170.265
-146.929
-123.904
-101.151
-78.6289
-56.2949
-34.1052
-12.0171
10
0
0
0
0
0
0
0
0
0
0
-11376.8
-11376.8
-11344.5
-11182
-10828.5
-10292.6
-9615.57
-8843.76
-8019
-7175.74
-6340.88
-5534.91
-4773.17
-4067.1
-3425.02
-2852.61
-2353.17
-1927.75
-1575.33
-1292.93
-1075.78
-917.3
-808.606
-737.67
-689.184
-648.363
-607.196
-565.308
-525.417
-488.922
-455.608
-424.699
-395.505
-367.553
-340.546
-314.296
-288.681
-263.62
-239.054
-214.937
-191.229
-167.896
-144.902
-122.211
-99.7847
-77.583
-55.5649
-33.6882
-11.9112
10
0
0
0
0
0
0
0
0
0
0