# vtk DataFile Version 3.0
vtk output7
ASCII
DATASET STRUCTURED_GRID
DIMENSIONS 61 41 1
POINTS 2501 float
0 0 0
0.1 0 0
0.2 0 0
0.3 0 0
0.4 0 0
0.5 0 0
0.6 0 0
0.7 0 0
0.8 0 0
0.9 0 0
1 0 0
1.1 0 0
1.2 0 0
1.3 0 0
1.4 0 0
1.5 0 0
1.6 0 0
1.7 0 0
1.8 0 0
1.9 0 0
2 0 0
2.1 0 0
2.2 0 0
2.3 0 0
2.4 0 0
2.5 0 0
2.6 0 0
2.7 0 0
2.8 0 0
2.9 0 0
3 0 0
3.1 0 0
3.2 0 0
3.3 0 0
3.4 0 0
3.5 0 0
3.6 0 0
3.7 0 0
3.8 0 0
3.9 0 0
4 0 0
4.1 0 0
4.2 0 0
4.3 0 0
4.4 0 0
4.5 0 0
4.6 0 0
4.7 0 0
4.8 0 0
4.9 0 0
5 0 0
5.1 0 0
5.2 0 0
5.3 0 0
5.4 0 0
5.5 0 0
5.6 0 0
5.7 0 0
5.8 0 0
5.9 0 0
6 0 0
0 0.1 0
0.1 0.1 0
0.2 0.1 0
0.3 0.1 0
0.4 0.1 0
0.5 0.1 0
0.6 0.1 0
0.7 0.1 0
0.8 0.1 0
0.9 0.1 0
1 0.1 0
1.1 0.1 0
1.2 0.1 0
1.3 0.1 0
1.4 0.1 0
1.5 0.1 0
1.6 0.1 0
1.7 0.1 0
1.8 0.1 0
1.9 0.1 0
2 0.1 0
2.1 0.1 0
2.2 0.1 0
2.3 0.1 0
2.4 0.1 0
2.5 0.1 0
2.6 0.1 0
2.7 0.1 0
2.8 0.1 0
2.9 0.1 0
3 0.1 0
3.1 0.1 0
3.2 0.1 0
3.3 0.1 0
3.4 0.1 0
3.5 0.1 0
3.6 0.1 0
3.7 0.1 0
3.8 0.1 0
3.9 0.1 0
4 0.1 0
4.1 0.1 0
4.2 0.1 0
4.3 0.1 0
4.4 0.1 0
4.5 0.1 0
4.6 0.1 0
4.7 0.1 0
4.8 0.1 0
4.9 0.1 0
5 0.1 0
5.1 0.1 0
5.2 0.1 0
5.3 0.1 0
5.4 0.1 0
5.5 0.1 0
5.6 0.1 0
5.7 0.1 0
5.8 0.1 0
5.9 0.1 0
6 0.1 0
0 0.2 0
0.1 0.2 0
0.2 0.2 0
0.3 0.2 0
0.4 0.2 0
0.5 0.2 0
0.6 0.2 0
0.7 0.2 0
0.8 0.2 0
0.9 0.2 0
1 0.2 0
1.1 0.2 0
1.2 0.2 0
1.3 0.2 0
1.4 0.2 0
1.5 0.2 0
1.6 0.2 0
1.7 0.2 0
1.8 0.2 0
1.9 0.2 0
2 0.2 0
2.1 0.2 0
2.2 0.2 0
2.3 0.2 0
2.4 0.2 0
2.5 0.2 0
2.6 0.2 0
2.7 0.2 0
2.8 0.2 0
2.9 0.2 0
3 0.2 0
3.1 0.2 0
3.2 0.2 0
3.3 0.2 0
3.4 0.2 0
3.5 0.2 0
3.6 0.2 0
3.7 0.2 0
3.8 0.2 0
3.9 0.2 0
4 0.2 0
4.1 0.2 0
4.2 0.2 0
4.3 0.2 0
4.4 0.2 0
4.5 0.2 0
4.6 0.2 0
4.7 0.2 0
4.8 0.2 0
4.9 0.2 0
5 0.2 0
5.1 0.2 0
5.2 0.2 0
5.3 0.2 0
5.4 0.2 0
5.5 0.2 0
5.6 0.2 0
5.7 0.2 0
5.8 0.2 0
5.9 0.2 0
6 0.2 0
0 0.3 0
0.1 0.3 0
0.2 0.3 0
0.3 0.3 0
0.4 0.3 0
0.5 0.3 0
0.6 0.3 0
0.7 0.3 0
0.8 0.3 0
0.9 0.3 0
1 0.3 0
1.1 0.3 0
1.2 0.3 0
1.3 0.3 0
1.4 0.3 0
1.5 0.3 0
1.6 0.3 0
1.7 0.3 0
1.8 0.3 0
1.9 0.3 0
2 0.3 0
2.1 0.3 0
2.2 0.3 0
2.3 0.3 0
2.4 0.3 0
2.5 0.3 0
2.6 0.3 0
2.7 0.3 0
2.8 0.3 0
2.9 0.3 0
3 0.3 0
3.1 0.3 0
3.2 0.3 0
3.3 0.3 0
3.4 0.3 0
3.5 0.3 0
3.6 0.3 0
3.7 0.3 0
3.8 0.3 0
3.9 0.3 0
4 0.3 0
4.1 0.3 0
4.2 0.3 0
4.3 0.3 0
4.4 0.3 0
4.5 0.3 0
4.6 0.3 0
4.7 0.3 0
4.8 0.3 0
4.9 0.3 0
5 0.3 0
5.1 0.3 0
5.2 0.3 0
5.3 0.3 0
5.4 0.3 0
5.5 0.3 0
5.6 0.3 0
5.7 0.3 0
5.8 0.3 0
5.9 0.3 0
6 0.3 0
0 0.4 0
0.1 0.4 0
0.2 0.4 0
0.3 0.4 0
0.4 0.4 0
0.5 0.4 0
0.6 0.4 0
0.7 0.4 0
0.8 0.4 0
0.9 0.4 0
1 0.4 0
1.1 0.4 0
1.2 0.4 0
1.3 0.4 0
1.4 0.4 0
1.5 0.4 0
1.6 0.4 0
1.7 0.4 0
1.8 0.4 0
1.9 0.4 0
2 0.4 0
2.1 0.4 0
2.2 0.4 0
2.3 0.4 0
2.4 0.4 0
2.5 0.4 0
2.6 0.4 0
2.7 0.4 0
2.8 0.4 0
2.9 0.4 0
3 0.4 0
3.1 0.4 0
3.2 0.4 0
3.3 0.4 0
3.4 0.4 0
3.5 0.4 0
3.6 0.4 0
3.7 0.4 0
3.8 0.4 0
3.9 0.4 0
4 0.4 0
4.1 0.4 0
4.2 0.4 0
4.3 0.4 0
4.4 0.4 0
4.5 0.4 0
4.6 0.4 0
4.7 0.4 0
4.8 0.4 0
4.9 0.4 0
5 0.4 0
5.1 0.4 0
5.2 0.4 0
5.3 0.4 0
5.4 0.4 0
5.5 0.4 0
5.6 0.4 0
5.7 0.4 0
5.8 0.4 0
5.9 0.4 0
6 0.4 0
0 0.5 0
0.1 0.5 0
0.2 0.5 0
0.3 0.5 0
0.4 0.5 0
0.5 0.5 0
0.6 0.5 0
0.7 0.5 0
0.8 0.5 0
0.9 0.5 0
1 0.5 0
1.1 0.5 0
1.2 0.5 0
1.3 0.5 0
1.4 0.5 0
1.5 0.5 0
1.6 0.5 0
1.7 0.5 0
1.8 0.5 0
1.9 0.5 0
2 0.5 0
2.1 0.5 0
2.2 0.5 0
2.3 0.5 0
2.4 0.5 0
2.5 0.5 0
2.6 0.5 0
2.7 0.5 0
2.8 0.5 0
2.9 0.5 0
3 0.5 0
3.1 0.5 0
3.2 0.5 0
3.3 0.5 0
3.4 0.5 0
3.5 0.5 0
3.6 0.5 0
3.7 0.5 0
3.8 0.5 0
3.9 0.5 0
4 0.5 0
4.1 0.5 0
4.2 0.5 0
4.3 0.5 0
4.4 0.5 0
4.5 0.5 0
4.6 0.5 0
4.7 0.5 0
4.8 0.5 0
4.9 0.5 0
5 0.5 0
5.1 0.5 0
5.2 0.5 0
5.3 0.5 0
5.4 0.5 0
5.5 0.5 0
5.6 0.5 0
5.7 0.5 0
5.8 0.5 0
5.9 0.5 0
6 0.5 0
0 0.6 0
0.1 0.6 0
0.2 0.6 0
0.3 0.6 0
0.4 0.6 0
0.5 0.6 0
0.6 0.6 0
0.7 0.6 0
0.8 0.6 0
0.9 0.6 0
1 0.6 0
1.1 0.6 0
1.2 0.6 0
1.3 0.6 0
1.4 0.6 0
1.5 0.6 0
1.6 0.6 0
1.7 0.6 0
1.8 0.6 0
1.9 0.6 0
2 0.6 0
2.1 0.6 0
2.2 0.6 0
2.3 0.6 0
2.4 0.6 0
2.5 0.6 0
2.6 0.6 0
2.7 0.6 0
2.8 0.6 0
2.9 0.6 0
3 0.6 0
3.1 0.6 0
3.2 0.6 0
3.3 0.6 0
3.4 0.6 0
3.5 0.6 0
3.6 0.6 0
3.7 0.6 0
3.8 0.6 0
3.9 0.6 0
4 0.6 0
4.1 0.6 0
4.2 0.6 0
4.3 0.6 0
4.4 0.6 0
4.5 0.6 0
4.6 0.6 0
4.7 0.6 0
4.8 0.6 0
4.9 0.6 0
5 0.6 0
5.1 0.6 0
5.2 0.6 0
5.3 0.6 0
5.4 0.6 0
5.5 0.6 0
5.6 0.6 0
5.7 0.6 0
5.8 0.6 0
5.9 0.6 0
6 0.6 0
0 0.7 0
0.1 0.7 0
0.2 0.7 0
0.3 0.7 0
0.4 0.7 0
0.5 0.7 0
0.6 0.7 0
0.7 0.7 0
0.8 0.7 0
0.9 0.7 0
1 0.7 0
1.1 0.7 0
1.2 0.7 0
1.3 0.7 0
1.4 0.7 0
1.5 0.7 0
1.6 0.7 0
1.7 0.7 0
1.8 0.7 0
1.9 0.7 0
2 0.7 0
2.1 0.7 0
2.2 0.7 0
2.3 0.7 0
2.4 0.7 0
2.5 0.7 0
2.6 0.7 0
2.7 0.7 0
2.8 0.7 0
2.9 0.7 0
3 0.7 0
3.1 0.7 0
3.2 0.7 0
3.3 0.7 0
3.4 0.7 0
3.5 0.7 0
3.6 0.7 0
3.7 0.7 0
3.8 0.7 0
3.9 0.7 0
4 0.7 0
4.1 0.7 0
4.2 0.7 0
4.3 0.7 0
4.4 0.7 0
4.5 0.7 0
4.6 0.7 0
4.7 0.7 0
4.8 0.7 0
4.9 0.7 0
5 0.7 0
5.1 0.7 0
5.2 0.7 0
5.3 0.7 0
5.4 0.7 0
5.5 0.7 0
5.6 0.7 0
5.7 0.7 0
5.8 0.7 0
5.9 0.7 0
6 0.7 0
0 0.8 0
0.1 0.8 0
0.2 0.8 0
0.3 0.8 0
0.4 0.8 0
0.5 0.8 0
0.6 0.8 0
0.7 0.8 0
0.8 0.8 0
0.9 0.8 0
1 0.8 0
1.1 0.8 0
1.2 0.8 0
1.3 0.8 0
1.4 0.8 0
1.5 0.8 0
1.6 0.8 0
1.7 0.8 0
1.8 0.8 0
1.9 0.8 0
2 0.8 0
2.1 0.8 0
2.2 0.8 0
2.3 0.8 0
2.4 0.8 0
2.5 0.8 0
2.6 0.8 0
2.7 0.8 0
2.8 0.8 0
2.9 0.8 0
3 0.8 0
3.1 0.8 0
3.2 0.8 0
3.3 0.8 0
3.4 0.8 0
3.5 0.8 0
3.6 0.8 0
3.7 0.8 0
3.8 0.8 0
3.9 0.8 0
4 0.8 0
4.1 0.8 0
4.2 0.8 0
4.3 0.8 0
4.4 0.8 0
4.5 0.8 0
4.6 0.8 0
4.7 0.8 0
4.8 0.8 0
4.9 0.8 0
5 0.8 0
5.1 0.8 0
5.2 0.8 0
5.3 0.8 0
5.4 0.8 0
5.5 0.8 0
5.6 0.8 0
5.7 0.8 0
5.8 0.8 0
5.9 0.8 0
6 0.8 0
0 0.9 0
0.1 0.9 0
0.2 0.9 0
0.3 0.9 0
0.4 0.9 0
0.5 0.9 0
0.6 0.9 0
0.7 0.9 0
0.8 0.9 0
0.9 0.9 0
1 0.9 0
1.1 0.9 0
1.2 0.9 0
1.3 0.9 0
1.4 0.9 0
1.5 0.9 0
1.6 0.9 0
1.7 0.9 0
1.8 0.9 0
1.9 0.9 0
2 0.9 0
2.1 0.9 0
2.2 0.9 0
2.3 0.9 0
2.4 0.9 0
2.5 0.9 0
2.6 0.9 0
2.7 0.9 0
2.8 0.9 0
2.9 0.9 0
3 0.9 0
3.1 0.9 0
3.2 0.9 0
3.3 0.9 0
3.4 0.9 0
3.5 0.9 0
3.6 0.9 0
3.7 0.9 0
3.8 0.9 0
3.9 0.9 0
4 0.9 0
4.1 0.9 0
4.2 0.9 0
4.3 0.9 0
4.4 0.9 0
4.5 0.9 0
4.6 0.9 0
4.7 0.9 0
4.8 0.9 0
4.9 0.9 0
5 0.9 0
5.1 0.9 0
5.2 0.9 0
5.3 0.9 0
5.4 0.9 0
5.5 0.9 0
5.6 0.9 0
5.7 0.9 0
5.8 0.9 0
5.9 0.9 0
6 0.9 0
0 1 0
0.1 1 0
0.2 1 0
0.3 1 0
0.4 1 0
0.5 1 0
0.6 1 0
0.7 1 0
0.8 1 0
0.9 1 0
1 1 0
1.1 1 0
1.2 1 0
1.3 1 0
1.4 1 0
1.5 1 0
1.6 1 0
1.7 1 0
1.8 1 0
1.9 1 0
2 1 0
2.1 1 0
2.2 1 0
2.3 1 0
2.4 1 0
2.5 1 0
2.6 1 0
2.7 1 0
2.8 1 0
2.9 1 0
3 1 0
3.1 1 0
3.2 1 0
3.3 1 0
3.4 1 0
3.5 1 0
3.6 1 0
3.7 1 0
3.8 1 0
3.9 1 0
4 1 0
4.1 1 0
4.2 1 0
4.3 1 0
4.4 1 0
4.5 1 0
4.6 1 0
4.7 1 0
4.8 1 0
4.9 1 0
5 1 0
5.1 1 0
5.2 1 0
5.3 1 0
5.4 1 0
5.5 1 0
5.6 1 0
5.7 1 0
5.8 1 0
5.9 1 0
6 1 0
0 1.1 0
0.1 1.1 0
0.2 1.1 0
0.3 1.1 0
0.4 1.1 0
0.5 1.1 0
0.6 1.1 0
0.7 1.1 0
0.8 1.1 0
0.9 1.1 0
1 1.1 0
1.1 1.1 0
1.2 1.1 0
1.3 1.1 0
1.4 1.1 0
1.5 1.1 0
1.6 1.1 0
1.7 1.1 0
1.8 1.1 0
1.9 1.1 0
2 1.1 0
2.1 1.1 0
2.2 1.1 0
2.3 1.1 0
2.4 1.1 0
2.5 1.1 0
2.6 1.1 0
2.7 1.1 0
2.8 1.1 0
2.9 1.1 0
3 1.1 0
3.1 1.1 0
3.2 1.1 0
3.3 1.1 0
3.4 1.1 0
3.5 1.1 0
3.6 1.1 0
3.7 1.1 0
3.8 1.1 0
3.9 1.1 0
4 1.1 0
4.1 1.1 0
4.2 1.1 0
4.3 1.1 0
4.4 1.1 0
4.5 1.1 0
4.6 1.1 0
4.7 1.1 0
4.8 1.1 0
4.9 1.1 0
5 1.1 0
5.1 1.1 0
5.2 1.1 0
5.3 1.1 0
5.4 1.1 0
5.5 1.1 0
5.6 1.1 0
5.7 1.1 0
5.8 1.1 0
5.9 1.1 0
6 1.1 0
0 1.2 0
0.1 1.2 0
0.2 1.2 0
0.3 1.2 0
0.4 1.2 0
0.5 1.2 0
0.6 1.2 0
0.7 1.2 0
0.8 1.2 0
0.9 1.2 0
1 1.2 0
1.1 1.2 0
1.2 1.2 0
1.3 1.2 0
1.4 1.2 0
1.5 1.2 0
1.6 1.2 0
1.7 1.2 0
1.8 1.2 0
1.9 1.2 0
2 1.2 0
2.1 1.2 0
2.2 1.2 0
2.3 1.2 0
2.4 1.2 0
2.5 1.2 0
2.6 1.2 0
2.7 1.2 0
2.8 1.2 0
2.9 1.2 0
3 1.2 0
3.1 1.2 0
3.2 1.2 0
3.3 1.2 0
3.4 1.2 0
3.5 1.2 0
3.6 1.2 0
3.7 1.2 0
3.8 1.2 0
3.9 1.2 0
4 1.2 0
4.1 1.2 0
4.2 1.2 0
4.3 1.2 0
4.4 1.2 0
4.5 1.2 0
4.6 1.2 0
4.7 1.2 0
4.8 1.2 0
4.9 1.2 0
5 1.2 0
5.1 1.2 0
5.2 1.2 0
5.3 1.2 0
5.4 1.2 0
5.5 1.2 0
5.6 1.2 0
5.7 1.2 0
5.8 1.2 0
5.9 1.2 0
6 1.2 0
0 1.3 0
0.1 1.3 0
0.2 1.3 0
0.3 1.3 0
0.4 1.3 0
0.5 1.3 0
0.6 1.3 0
0.7 1.3 0
0.8 1.3 0
0.9 1.3 0
1 1.3 0
1.1 1.3 0
1.2 1.3 0
1.3 1.3 0
1.4 1.3 0
1.5 1.3 0
1.6 1.3 0
1.7 1.3 0
1.8 1.3 0
1.9 1.3 0
2 1.3 0
2.1 1.3 0
2.2 1.3 0
2.3 1.3 0
2.4 1.3 0
2.5 1.3 0
2.6 1.3 0
2.7 1.3 0
2.8 1.3 0
2.9 1.3 0
3 1.3 0
3.1 1.3 0
3.2 1.3 0
3.3 1.3 0
3.4 1.3 0
3.5 1.3 0
3.6 1.3 0
3.7 1.3 0
3.8 1.3 0
3.9 1.3 0
4 1.3 0
4.1 1.3 0
4.2 1.3 0
4.3 1.3 0
4.4 1.3 0
4.5 1.3 0
4.6 1.3 0
4.7 1.3 0
4.8 1.3 0
4.9 1.3 0
5 1.3 0
5.1 1.3 0
5.2 1.3 0
5.3 1.3 0
5.4 1.3 0
5.5 1.3 0
5.6 1.3 0
5.7 1.3 0
5.8 1.3 0
5.9 1.3 0
6 1.3 0
0 1.4 0
0.1 1.4 0
0.2 1.4 0
0.3 1.4 0
0.4 1.4 0
0.5 1.4 0
0.6 1.4 0
0.7 1.4 0
0.8 1.4 0
0.9 1.4 0
1 1.4 0
1.1 1.4 0
1.2 1.4 0
1.3 1.4 0
1.4 1.4 0
1.5 1.4 0
1.6 1.4 0
1.7 1.4 0
1.8 1.4 0
1.9 1.4 0
2 1.4 0
2.1 1.4 0
2.2 1.4 0
2.3 1.4 0
2.4 1.4 0
2.5 1.4 0
2.6 1.4 0
2.7 1.4 0
2.8 1.4 0
2.9 1.4 0
3 1.4 0
3.1 1.4 0
3.2 1.4 0
3.3 1.4 0
3.4 1.4 0
3.5 1.4 0
3.6 1.4 0
3.7 1.4 0
3.8 1.4 0
3.9 1.4 0
4 1.4 0
4.1 1.4 0
4.2 1.4 0
4.3 1.4 0
4.4 1.4 0
4.5 1.4 0
4.6 1.4 0
4.7 1.4 0
4.8 1.4 0
4.9 1.4 0
5 1.4 0
5.1 1.4 0
5.2 1.4 0
5.3 1.4 0
5.4 1.4 0
5.5 1.4 0
5.6 1.4 0
5.7 1.4 0
5.8 1.4 0
5.9 1.4 0
6 1.4 0
0 1.5 0
0.1 1.5 0
0.2 1.5 0
0.3 1.5 0
0.4 1.5 0
0.5 1.5 0
0.6 1.5 0
0.7 1.5 0
0.8 1.5 0
0.9 1.5 0
1 1.5 0
1.1 1.5 0
1.2 1.5 0
1.3 1.5 0
1.4 1.5 0
1.5 1.5 0
1.6 1.5 0
1.7 1.5 0
1.8 1.5 0
1.9 1.5 0
2 1.5 0
2.1 1.5 0
2.2 1.5 0
2.3 1.5 0
2.4 1.5 0
2.5 1.5 0
2.6 1.5 0
2.7 1.5 0
2.8 1.5 0
2.9 1.5 0
3 1.5 0
3.1 1.5 0
3.2 1.5 0
3.3 1.5 0
3.4 1.5 0
3.5 1.5 0
3.6 1.5 0
3.7 1.5 0
3.8 1.5 0
3.9 1.5 0
4 1.5 0
4.1 1.5 0
4.2 1.5 0
4.3 1.5 0
4.4 1.5 0
4.5 1.5 0
4.6 1.5 0
4.7 1.5 0
4.8 1.5 0
4.9 1.5 0
5 1.5 0
5.1 1.5 0
5.2 1.5 0
5.3 1.5 0
5.4 1.5 0
5.5 1.5 0
5.6 1.5 0
5.7 1.5 0
5.8 1.5 0
5.9 1.5 0
6 1.5 0
0 1.6 0
0.1 1.6 0
0.2 1.6 0
0.3 1.6 0
0.4 1.6 0
0.5 1.6 0
0.6 1.6 0
0.7 1.6 0
0.8 1.6 0
0.9 1.6 0
1 1.6 0
1.1 1.6 0
1.2 1.6 0
1.3 1.6 0
1.4 1.6 0
1.5 1.6 0
1.6 1.6 0
1.7 1.6 0
1.8 1.6 0
1.9 1.6 0
2 1.6 0
2.1 1.6 0
2.2 1.6 0
2.3 1.6 0
2.4 1.6 0
2.5 1.6 0
2.6 1.6 0
2.7 1.6 0
2.8 1.6 0
2.9 1.6 0
3 1.6 0
3.1 1.6 0
3.2 1.6 0
3.3 1.6 0
3.4 1.6 0
3.5 1.6 0
3.6 1.6 0
3.7 1.6 0
3.8 1.6 0
3.9 1.6 0
4 1.6 0
4.1 1.6 0
4.2 1.6 0
4.3 1.6 0
4.4 1.6 0
4.5 1.6 0
4.6 1.6 0
4.7 1.6 0
4.8 1.6 0
4.9 1.6 0
5 1.6 0
5.1 1.6 0
5.2 1.6 0
5.3 1.6 0
5.4 1.6 0
5.5 1.6 0
5.6 1.6 0
5.7 1.6 0
5.8 1.6 0
5.9 1.6 0
6 1.6 0
[...]
CELL_DATA 2400
SCALARS phi float
LOOKUP_TABLE default 
4.711
4.711
4.711
4.711
4.711
4.711
4.711
4.711
4.711
4.711
4.711
4.711
4.711
4.711
4.711
4.711
4.711
4.711
4.711
4.711
4.711
4.711
4.711
4.711
4.711
4.711
4.711
4.711
4.711
4.711
4.711
4.711
4.711
4.711
4.711
4.711
4.711
4.711
4.711
4.711
4.711
4.711
4.711
4.711
4.711
4.711
4.711
4.711
4.711
4.711
4.711
4.711
4.711
4.711
4.711
4.711
4.711
4.711
4.711
4.711
4.711
4.711
4.711
4.711
4.711
4.711
4.711
4.711
4.711
4.711
4.711
4.711
4.711
4.711
4.711
4.711
4.711
4.711
4.711
4.711
4.711
4.711
4.711
4.711
4.711
4.711
4.711
4.711
4.711
4.711
4.711
4.711
4.711
4.711
4.711
4.711
4.711
4.711
4.711
4.711
4.711
4.711
4.711
4.711
4.711
4.711
4.711
4.711
4.711
4.711
4.711
4.711
4.711
4.711
4.711
4.711
4.711
4.711
4.711
4.711
4.711
4.711
4.711
4.711
4.711
4.711
4.711
4.711
4.711
4.711
4.711
4.711
4.711
4.711
4.711
4.711
4.711
4.711
4.711
4.711
4.711
4.711
4.711
4.711
4.711
4.711
4.711
4.711
4.711
4.711
4.711
4.711
4.711
4.711
4.711
4.711
4.711
4.711
4.711
4.711
4.711
4.711
4.711
4.711
4.711
4.711
4.711
4.711
4.711
4.711
4.711
4.711
4.711
4.711
4.711
4.711
4.711
4.711
4.711
4.711
4.711
4.711
4.711
4.711
4.711
4.711
4.711
4.711
4.711
4.711
4.711
4.711
4.711
4.711
4.711
4.711
4.711
4.711
4.711
4.711
4.711
4.711
4.711
4.711
4.711
4.711
4.711
4.711
4.711
4.711
4.711
4.711
4.711
4.711
4.711
4.711
4.711
4.711
4.711
4.711
4.711
4.711
4.711
4.711
4.711
4.711
4.711
4.711
4.711
4.711
4.711
4.711
4.711
4.711
4.711
4.711
4.711
4.711
4.711
4.711
4.711
4.711
4.711
4.711
4.711
4.711
4.711
4.711
4.711
4.711
4.711
4.711
4.711
4.711
4.711
4.711
4.711
4.711
4.711
4.711
4.711
4.711
4.711
4.711
4.711
4.711
4.711
4.711
4.711
4.711
4.711
4.711
4.711
4.711
4.711
4.711
4.711
4.711
4.711
4.711
4.711
4.711
4.711
4.711
4.711
4.711
4.711
4.711
4.711
4.711
4.711
4.711
4.711
4.711
4.711
4.711
4.711
4.711
4.711
4.711
4.711
4.711
4.711
4.711
4.711
4.711
4.711
4.711
4.711
4.711
4.711
4.711
4.711
4.711
4.711
4.711
4.711
4.711
4.711
4.711
4.711
4.711
4.711
4.711
4.711
4.711
4.711
4.711
4.711
4.711
4.711
4.711
4.711
4.711
4.711
4.711
4.711
4.711
4.711
4.711
4.711
4.711
4.711
4.711
4.711
4.711
4.711
4.711
4.711
4.711
4.711
4.711
4.711
4.711
4.711
4.711
4.711
4.711
4.711
4.711
4.711
4.711
4.711
4.711
4.711
4.711
4.711
4.711
4.711
4.711
4.711
4.711
4.711
4.711
4.711
4.711
4.711
4.711
4.711
4.711
4.711
4.711
4.711
4.711
4.711
4.711
4.711
4.711
4.711
4.711
4.711
4.711
4.711
4.711
4.711
4.711
4.711
4.711
4.711
4.711
4.711
4.711
4.711
4.711
4.711
4.711
4.711
4.711
4.711
4.711
4.711
4.711
4.711
4.711
4.711
4.711
4.711
4.711
4.711
4.711
4.711
4.711
4.711
4.711
4.711
4.711
4.711
4.711
4.711
4.711
4.711
4.711
4.711
4.711
4.711
4.711
4.711
4.711
4.711
4.711
4.711
4.711
4.711
4.711
4.711
4.711
4.711
4.711
4.711
4.711
4.711
4.711
4.711
4.711
4.711
4.711
4.711
4.711
4.711
4.711
4.711
4.711
4.711
4.711
4.711
4.711
4.711
4.711
4.711
4.711
4.711
4.711
4.711
4.711
4.711
4.711
4.711
4.711
4.711
4.711
4.711
4.711
4.711
4.711
4.711
4.711
4.711
4.711
4.711
4.711
4.711
4.711
4.711
4.711
4.711
4.711
4.711
4.711
4.711
4.711
4.711
4.711
4.711
4.711
4.711
4.711
4.711
4.711
4.711
4.711
4.711
4.711
4.711
4.711
4.711
4.711
4.711
4.711
4.711
4.711
4.711
4.711
4.711
4.711
4.711
4.711
4.711
4.711
4.711
4.711
4.711
4.711
4.711
4.711
4.711
4.711
4.711
4.711
4.711
4.711
4.711
4.711
4.711
4.711
4.711
4.711
4.711
4.711
4.711
4.711
4.711
4.711
4.711
4.711
4.711
4.711
4.711
4.711
4.711
4.711
4.711
4.711
4.711
4.711
4.711
4.711
4.711
4.711
4.711
4.711
4.711
4.711
4.711
4.711
4.711
4.711
4.711
4.711
4.711
4.711
4.711
4.711
4.711
4.711
4.711
4.711
4.711
4.711
4.711
4.711
4.711
4.711
4.711
4.711
4.711
4.711
4.711
4.711
4.711
4.711
4.711
4.711
4.711
4.711
4.711
4.711
4.711
4.711
4.711
4.711
4.711
4.711
4.711
4.711
4.711
4.711
4.711
4.711
4.711
4.711
4.711
4.711
4.711
4.711
4.711
4.711
4.711
4.711
4.711
4.711
4.711
4.711
4.711
4.711
4.711
4.711
4.711
4.711
4.711
4.711
4.711
4.711
4.711
4.711
4.711
4.711
4.711
4.711
4.711
4.711
4.711
4.711
4.711
4.711
4.711
4.711
4.711
4.711
4.711
4.711
4.711
4.711
4.711
4.711
4.711
4.711
4.711
4.711
4.711
4.711
4.711
4.711
4.711
4.711
4.711
4.711
4.711
4.711
4.711
4.711
4.711
4.711
4.711
4.711
4.711
4.711
4.711
4.711
4.711
4.711
4.711
4.711
4.711
4.711
4.711
4.711
4.711
4.711
4.711
4.711
4.711
4.711
4.711
4.711
4.711
4.711
4.711
4.711
4.711
4.711
4.711
4.711
4.711
4.711
4.711
4.711
4.711
4.711
4.711
4.711
4.711
4.711
4.711
4.711
4.711
4.711
4.711
4.711
4.711
4.711
4.711
4.711
4.711
4.711
4.711
4.711
4.711
4.711
4.711
4.711
4.711
4.711
4.711
4.711
4.711
4.711
4.711
4.711
4.711
4.711
4.711
4.711
4.711
4.711
4.711
4.711
4.711
4.711
4.711
4.711
4.711
4.711
4.711
4.711
4.711
4.711
4.711
4.711
4.711
4.711
4.711
4.711
4.711
4.711
4.711
4.711
4.711
4.711
4.711
4.711
4.711
4.711
4.711
4.711
4.711
4.711
4.711
4.711
4.711
4.711
4.711
4.711
4.711
4.711
4.711
4.711
4.711
4.711
4.711
4.711
4.711
4.711
4.711
4.711
4.711
4.711
4.711
4.711
4.711
4.711
4.711
4.711
4.711
4.711
4.711
4.711
4.711
4.711
4.711
4.711
4.711
4.711
4.711
4.711
4.711
4.711
4.711
4.711
4.711
4.711
4.711
4.711
4.711
4.711
4.711
4.711
4.711
4.711
4.711
4.711
4.711
4.711
4.711
4.711
4.711
4.711
4.711
4.711
4.711
4.711
4.711
4.711
4.711
4.711
4.711
4.711
4.711
4.711
4.711
4.711
4.711
4.711
4.711
4.711
4.711
4.711
4.711
4.711
4.711
4.711
4.711
4.711
4.711
4.711
4.711
4.711
4.711
4.711
4.711
4.711
4.711
4.711
4.711
4.711
4.711
4.711
4.711
4.711
4.711
4.711
4.711
4.711
4.711
4.711
4.711
4.711
4.711
4.711
4.711
4.711
4.711
4.711
4.711
4.711
4.711
4.711
4.711
4.711
4.711
4.711
4.711
4.711
4.711
4.711
4.711
4.711
4.711
4.711
4.711
4.711
4.711
4.711
4.711
4.711
4.711
4.711
4.711
4.711
4.711
4.711
4.711
4.711
4.711
4.711
4.711
4.711
4.711
4.711
4.711
4.711
4.711
4.711
4.711
4.711
4.711
4.711
4.711
4.711
4.711
4.711
4.711
4.711
4.711
4.711
4.711
4.711
4.711
4.711
4.711
4.711
4.711
4.711
4.711
4.711
4.711
4.711
4.711
4.711
4.711
4.711
4.711
4.711
4.711
4.711
4.711
4.711
4.711
4.711
4.711
4.711
4.711
4.711
4.711
4.711
4.711
4.711
4.711
4.711
4.711
4.711
4.711
4.711
4.711
4.711
4.711
4.711
4.711
4.711
4.711
4.711
4.711
4.711
4.711
4.711
4.711
4.711
4.711
4.711
4.711
4.711
4.711
4.711
4.711
4.711
4.711
4.711
4.711
4.711
4.711
4.711
4.711
4.711
4.711
4.711
4.711
4.711
4.711
4.711
4.711
4.711
4.711
4.711
4.711
4.711
4.711
4.711
4.711
4.711
4.711
4.711
4.711
4.711
4.711
4.711
4.711
4.711
4.711
4.711
4.711
4.711
4.711
4.711
4.711
4.711
4.711
4.711
4.711
4.711
4.711
4.711
4.711
4.711
4.711
4.711
4.711
4.711
4.711
4.711
4.711
4.711
4.711
4.711
4.711
4.711
4.711
4.711
4.711
4.711
4.711
4.711
4.711
4.711
4.711
4.711
4.711
4.711
4.711
4.711
4.711
4.711
4.711
4.711
4.711
4.711
4.711
4.711
4.711
4.711
4.711
4.711
4.711
4.711
4.711
4.711
4.711
4.711
4.711
4.711
4.711
4.711
4.711
4.711
4.711
4.711
4.711
4.711
4.711
4.711
4.711
4.711
4.711
4.711
4.711
4.711
4.711
4.711
4.711
4.711
4.711
4.711
4.711
4.711
4.711
4.711
4.711
4.711
4.711
4.711
4.711
4.711
4.711
4.711
4.711
4.711
4.711
4.711
4.711
4.711
4.711
4.711
4.711
4.711
4.711
4.711
4.711
4.711
4.711
4.711
4.711
4.711
4.711
4.711
4.711
4.711
4.711
4.711
4.711
4.711
4.711
4.711
4.711
4.711
4.711
4.711
4.711
4.711
4.711
4.711
4.711
4.711
4.711
4.711
4.711
4.711
4.711
4.711
4.711
4.711
4.711
4.711
4.711
4.711
4.711
4.711
4.711
4.711
4.711
4.711
4.711
4.711
4.711
4.711
4.711
4.711
4.711
4.711
4.711
4.711
4.711
4.711
4.711
4.711
4.711
4.711
4.711
4.711
4.711
4.711
4.711
4.711
4.711
4.711
4.711
4.711
4.711
4.711
4.711
4.711
4.711
4.711
4.711
4.711
4.711
4.711
4.711
4.711
4.711
4.711
4.711
4.711
4.711
4.711
4.711
4.711
4.711
4.711
4.711
4.711
4.711
4.711
4.711
4.711
4.711
4.711
4.711
4.711
4.711
4.711
4.711
4.711
4.711
4.711
4.711
4.711
4.711
4.711
4.711
4.711
4.711
4.711
4.711
4.711
4.711
4.711
4.711
4.711
4.711
4.711
4.711
4.711
4.711
4.711
4.711
4.711
4.711
4.711
4.711
4.711
4.711
4.711
4.711
4.711
4.711
4.711
4.711
4.711
4.711
4.711
4.711
4.711
4.711
4.711
4.711
4.711
4.711
4.711
4.711
4.711
4.711
4.711
4.711
4.711
4.711
4.711
4.711
4.711
4.711
4.711
4.711
4.711
4.711
4.711
4.711
4.711
4.711
4.711
4.711
4.711
4.711
4.711
4.711
4.711
4.711
4.711
4.711
4.711
4.711
4.711
4.711
4.711
4.711
4.711
4.711
4.711
4.711
4.711
4.711
4.711
4.711
4.711
4.711
4.711
4.711
4.711
4.711
4.711
4.711
4.711
4.711
4.711
4.711
4.711
4.711
4.711
4.711
4.711
4.711
4.711
4.711
4.711
4.711
4.711
4.711
4.711
4.711
4.711
4.711
4.711
4.711
4.711
4.711
4.711
4.711
4.711
4.711
4.711
4.711
4.711
4.711
4.711
4.711
4.711
4.711
4.711
4.711
4.711
4.711
4.711
4.711
4.711
4.711
4.711
4.711
4.711
4.711
4.711
4.711
4.711
4.711
4.711
4.711
4.711
4.711
4.711
4.711
4.711
4.711
4.711
4.711
4.711
4.711
4.711
4.711
4.711
4.711
4.711
4.711
4.711
4.711
4.711
4.711
4.711
4.711
4.711
4.711
4.711
4.711
4.711
4.711
4.711
4.711
4.711
4.711
4.711
4.711
4.711
4.711
4.711
4.711
4.711
4.711
4.711
4.711
4.711
4.711
4.711
4.711
4.711
4.711
4.711
4.711
4.711
4.711
4.711
4.711
4.711
4.711
4.711
4.711
4.711
4.711
4.711
4.711
4.711
4.711
4.711
4.711
4.711
4.711
4.711
4.711
4.711
4.711
4.711
4.711
4.711
4.711
4.711
4.711
4.711
4.711
4.711
4.711
4.711
4.711
4.711
4.711
4.711
4.711
4.711
4.711
4.711
4.711
4.711
4.711
4.711
4.711
4.711
4.711
4.711
4.711
4.711
4.711
4.711
4.711
4.711
4.711
4.711
4.711
4.711
4.711
4.711
4.711
4.711
4.711
4.711
4.711
4.711
4.711
4.711
4.711
4.711
4.711
4.711
4.711
4.711
4.711
4.711
4.711
4.711
4.711
4.711
4.711
4.711
4.711
4.711
4.711
4.711
4.711
4.711
4.711
4.711
4.711
4.711
4.711
4.711
4.711
4.711
4.711
4.711
4.711
4.711
4.711
4.711
4.711
4.711
4.711
4.711
4.711
4.711
4.711
4.711
4.711
4.711
4.711
4.711
4.711
4.711
4.711
4.711
4.711
4.711
4.711
4.711
4.711
4.711
4.711
4.711
4.711
4.711
4.711
4.711
4.711
4.711
4.711
4.711
4.711
4.711
4.711
4.711
4.711
4.711
4.711
4.711
4.711
4.711
4.711
4.711
4.711
4.711
4.711
4.711
4.711
4.711
4.711
4.711
4.711
4.711
4.711
4.711
4.711
4.711
4.711
4.711
4.711
4.711
4.711
4.711
4.711
4.711
4.711
4.711
4.711
4.711
4.711
4.711
4.711
4.711
4.711
4.711
4.711
4.711
4.711
4.711
4.711
4.711
4.711
4.711
4.711
4.711
4.711
4.711
4.711
4.711
4.711
4.711
4.711
4.711
4.711
4.711
4.711
4.711
4.711
4.711
4.711
4.711
4.711
4.711
4.711
4.711
4.711
4.711
4.711
4.711
4.711
4.711
4.711
4.711
4.711
4.711
4.711
4.711
4.711
4.711
4.711
4.711
4.711
4.711
4.711
4.711
4.711
4.711
4.711
4.711
4.711
4.711
4.711
4.711
4.711
4.711
4.711
4.711
4.711
4.711
4.711
4.711
4.711
4.711
4.711
4.711
4.711
4.711
4.711
4.711
4.711
4.711
4.711
4.711
4.711
4.711
4.711
4.711
4.711
4.711
4.711
4.711
4.711
4.711
4.711
4.711
4.711
4.711
4.711
4.711
4.711
4.711
4.711
4.711
4.711
4.711
4.711
4.711
4.711
4.711
4.711
4.711
4.711
4.711
4.711
4.711
4.711
4.711
4.711
4.711
4.711
4.711
4.711
4.711
4.711
4.711
4.711
4.711
4.711
4.711
4.711
4.711
4.711
4.711
4.711
4.711
4.711
4.711
4.711
4.711
4.711
4.711
4.711
4.711
4.711
4.711
4.711
4.711
4.711
4.711
4.711
4.711
4.711
4.711
4.711
4.711
4.711
4.711
4.711
4.711
4.711
4.711
4.711
4.711
4.711
4.711
4.711
4.711
4.711
4.711
4.711
4.711
4.711
4.711
4.711
4.711
4.711
4.711
4.711
4.711
4.711
4.711
4.711
4.711
4.711
4.711
4.711
4.711
4.711
4.711
4.711
4.711
4.711
4.711
4.711
4.711
4.711
4.711
4.711
4.711
4.711
4.711
4.711
4.711
4.711
4.711
4.711
4.711
4.711
4.711
4.711
4.711
4.711
4.711
4.711
4.711
4.711
4.711
4.711
4.711
4.711
4.711
4.711
4.711
4.711
4.711
4.711
4.711
4.711
4.711
4.711
4.711
4.711
4.711
4.711
4.711
4.711
4.711
4.711
4.711
4.711
4.711
4.711
4.711
4.711
4.711
4.711
4.711
4.711
4.711
4.711
4.711
4.711
4.711
4.711
4.711
4.711
4.711
4.711
4.711
4.711
4.711
4.711
4.711
4.711
4.711
4.711
4.711
4.711
4.711
4.711
4.711
4.711
4.711
4.711
4.711
4.711
4.711
4.711
4.711
4.711
4.711
4.711
4.711
4.711
4.711
4.711
4.711
4.711
4.711
4.711
4.711
4.711
4.711
4.711
4.711
4.711
4.711
4.711
4.711
4.711
4.711
4.711
4.711
4.711
4.711
4.711
4.711
4.711
4.711
4.711
4.711
4.711
4.711
4.711
4.711
4.711
4.711
4.711
4.711
4.711
4.711
4.711
4.711
4.711
4.711
4.711
4.711
4.711
4.711
4.711
4.711
4.711
4.711
4.711
4.711
4.711
4.711
4.711
4.711
4.711
4.711
4.711
4.711
4.711
4.711
4.711
4.711
4.711
4.711
4.711
4.711
4.711
4.711
4.711
4.711
4.711
4.711
4.711
4.711
4.711
4.711
4.711
4.711
4.711
4.711
4.711
4.711
4.711
4.711
4.711
4.711
4.711
4.711
4.711
4.711
4.711
4.711
4.711
4.711
4.711
4.711
4.711
4.711
4.711
4.711
4.711
4.711
4.711
4.711
4.711
4.711
4.711
4.711
4.711
4.711
4.711
4.711
4.711
4.711
4.711
4.711
4.711
4.711
4.711
4.711
4.711
4.711
4.711
4.711
4.711
4.711
4.711
4.711
4.711
4.711
4.711
4.711
4.711
4.711
4.711
4.711
4.711
4.711
4.711
4.711
4.711
4.711
4.711
4.711
4.711
4.711
4.711
4.711
4.711
4.711
4.711
4.711
4.711
4.711
4.711
4.711
4.711
4.711
4.711
4.711
4.711
4.711
4.711
4.711
4.711
4.711
4.711
4.711
4.711
4.711
4.711
4.711
4.711
4.711
4.711
4.711
4.711
4.711
4.711
4.711
4.711
4.711
4.711
4.711
4.711
4.711
4.711
4.711
4.711
4.711
4.711
4.711
4.711
4.711
4.711
4.711
4.711
4.711
4.711
4.711
4.711
4.711
4.711
4.711
4.711
4.711
4.711
4.711
4.711
4.711
4.711
4.711
4.711
4.711
4.711
4.711
4.711
4.711
4.711
4.711
4.711
4.711
4.711
4.711
4.711
4.711
4.711
4.711
4.711
4.711
4.711
4.711
4.711
4.711
4.711
4.711
4.711
4.711
4.711
4.711
4.711
4.711
4.711
4.711
4.711
4.711
4.711
4.711
4.711
4.711
4.711
4.711
4.711
4.711
4.711
4.711
4.711
4.711
4.711
4.711
4.711
4.711
4.711
4.711
4.711
4.711
4.711
4.711
4.711
4.711
4.711
4.711
4.711
4.711
4.711
4.711
4.711
4.711
4.711
4.711
4.711
4.711
4.711
4.711
4.711
4.711
4.711
4.711
4.711
4.711
4.711
4.711
4.711
4.711
4.711
4.711
4.711
4.711
4.711
4.711
4.711
4.711
4.711
4.711
4.711
4.711
4.711
4.711
4.711
4.711
4.711
4.711
4.711
4.711
4.711
4.711
4.711
4.711
4.711
4.711
4.711
4.711
4.711
4.711
4.711
4.711
4.711
4.711
4.711
4.711
4.711
4.711
4.711
4.711
4.711
4.711
4.711
4.711
4.711
4.711
4.711
4.711
4.711
4.711
4.711
4.711
4.711
4.711
4.711
4.711
4.711
4.711
4.711
4.711
4.711
4.711
4.711
4.711
4.711
4.711
4.711
4.711
4.711
4.711
4.711
4.711
4.711
4.711
4.711
4.711
4.711
4.711
4.711
4.711
4.711
4.711
4.711
4.711
4.711
4.711
4.711
4.711
4.711
4.711
4.711
4.711
4.711
4.711
4.711
4.711
4.711
4.711
4.711
4.711
4.711
4.711
4.711
4.711
4.711
4.711
4.711
4.711
4.711
4.711
4.711
4.711
4.711
4.711
4.711
4.711
4.711
4.711
4.711
4.711
4.711
4.711
4.711
4.711
4.711
4.711
4.711
4.711
4.711
4.711
4.711
4.711
4.711
4.711
4.711
4.711
4.711
4.711
4.711
4.711
4.711
4.711
4.711
4.711
4.711
4.711
4.711
4.711
4.711
4.711
4.711
4.711
4.711
4.711
4.711
4.711
4.711
4.711
4.711
4.711
4.711
4.711
4.711
4.711
4.711
4.711
4.711
4.711
4.711
4.711
4.711
4.711
4.711
4.711
4.711
4.711
4.711
4.711
4.711
4.711
4.711
4.711
4.711
4.711
4.711
4.711

SCALARS p float
LOOKUP_TABLE default 
0
0
0
0
0
0
0
0
0
0
-1110.24
-1110.24
-1100.36
-1087.72
-1074.65
-1061.69
-1048.75
-1035.62
-1022.14
-1008.15
-993.556
-978.275
-962.258
-945.472
-927.899
-909.535
-890.382
-870.453
-849.766
-828.341
-806.207
-783.391
-759.925
-735.843
-711.176
-685.96
-660.228
-634.014
-607.35
-580.269
-552.8
-524.974
-496.818
-468.361
-439.627
-410.641
-381.427
-352.006
-322.4
-292.629
-262.713
-232.67
-202.518
-172.276
-141.962
-111.595
-81.1951
-50.7842
-20.3896
10
0
0
0
0
0
0
0
0
0
0
-1110.24
-1110.24
-1100.36
-1087.72
-1074.65
-1061.69
-1048.75
-1035.62
-1022.14
-1008.15
-993.556
-978.275
-962.258
-945.472
-927.899
-909.535
-890.382
-870.453
-849.766
-828.341
-806.207
-783.391
-759.925
-735.843
-711.176
-685.96
-660.228
-634.014
-607.35
-580.269
-552.8
-524.974
-496.818
-468.361
-439.627
-410.641
-381.427
-352.006
-322.4
-292.629
-262.713
-232.67
-202.518
-172.276
-141.962
-111.595
-81.1951
-50.7842
-20.3896
10
0
0
0
0
0
0
0
0
0
0
-1121.65
-1121.65
-1111.09
-1097.91
-1084.37
-1070.92
-1057.44
-1043.73
-1029.64
-1015.03
-999.827
-983.963
-967.396
-950.1
-932.059
-913.268
-893.73
-873.454
-852.456
-830.753
-808.37
-785.333
-761.669
-737.41
-712.587
-687.23
-661.373
-635.046
-608.282
-581.11
-553.561
-525.662
-497.442
-468.926
-440.139
-411.105
-381.847
-352.387
-322.745
-292.942
-262.995
-232.924
-202.747
-172.48
-142.142
-111.75
-81.3232
-50.88
-20.441
10
0
0
0
0
0
0
0
0
0
0
-1143.38
-1143.38
-1132.03
-1118.01
-1103.52
-1088.96
-1074.24
-1059.22
-1043.79
-1027.87
-1011.41
-994.362
-976.703
-958.409
-939.467
-919.867
-899.607
-878.689
-857.12
-834.913
-812.083
-788.65
-764.636
-740.067
-714.967
-689.367
-663.292
-636.772
-609.835
-582.51
-554.823
-526.801
-498.469
-469.854
-440.977
-411.863
-382.532
-353.005
-323.303
-293.444
-263.447
-233.329
-203.107
-172.799
-142.419
-111.986
-81.5135
-51.0184
-20.5136
10
0
0
0
0
0
0
0
0
0
0
-1177.05
-1177.05
-1164.84
-1149.56
-1133.43
-1116.92
-1100.05
-1082.8
-1065.13
-1047.06
-1028.55
-1009.62
-990.236
-970.389
-950.06
-929.23
-907.884
-886.01
-863.602
-840.657
-817.18
-793.179
-768.666
-743.658
-718.172
-692.229
-665.853
-639.066
-611.892
-584.355
-556.48
-528.29
-499.809
-471.058
-442.061
-412.837
-383.408
-353.792
-324.008
-294.075
-264.009
-233.827
-203.545
-173.179
-142.743
-112.254
-81.7231
-51.1649
-20.589
10
0
0
0
0
0
0
0
0
0
0
-1223.95
-1223.95
-1210.62
-1193.47
-1174.83
-1155.37
-1135.29
-1114.74
-1093.82
-1072.63
-1051.23
-1029.65
-1007.88
-985.901
-963.69
-941.206
-918.412
-895.274
-871.763
-847.858
-823.543
-798.811
-773.659
-748.091
-722.114
-695.74
-668.984
-641.862
-614.391
-586.592
-558.483
-530.085
-501.418
-472.501
-443.354
-413.996
-384.445
-354.719
-324.835
-294.81
-264.659
-234.398
-204.042
-173.605
-143.101
-112.543
-81.9445
-51.3154
-20.6653
10
0
0
0
0
0
0
0
0
0
0
-1285.69
-1285.69
-1270.82
-1250.96
-1228.71
-1205.05
-1180.48
-1155.36
-1130.02
-1104.66
-1079.42
-1054.37
-1029.51
-1004.82
-980.224
-955.665
-931.069
-906.369
-881.504
-856.424
-831.091
-805.473
-779.551
-753.31
-726.746
-699.857
-672.649
-645.128
-617.306
-589.195
-560.81
-532.167
-503.281
-474.168
-444.845
-415.329
-385.635
-355.779
-325.777
-295.643
-265.392
-235.038
-204.595
-174.075
-143.492
-112.856
-82.18
-51.4731
-20.7444
10
0
0
0
0
0
0
0
0
0
0
-1364.44
-1364.44
-1347.43
-1323.71
-1296.39
-1266.92
-1236.22
-1205.02
-1173.86
-1143.12
-1113.02
-1083.63
-1054.97
-1026.95
-999.485
-972.442
-945.704
-919.158
-892.702
-866.251
-839.731
-813.086
-786.272
-759.256
-732.015
-704.535
-676.807
-648.83
-620.606
-592.14
-563.44
-534.516
-505.38
-476.044
-446.52
-416.824
-386.967
-356.963
-326.826
-296.569
-266.204
-235.744
-205.202
-174.588
-143.915
-113.193
-82.4312
-51.64
-20.8277
10
0
0
0
0
0
0
0
0
0
0
-1463.21
-1463.21
-1443.17
-1413.96
-1379.53
-1342.1
-1303.21
-1264.04
-1225.43
-1187.94
-1151.83
-1117.2
-1083.99
-1052.06
-1021.23
-991.317
-962.122
-933.471
-905.211
-877.209
-849.353
-821.555
-793.742
-765.858
-737.861
-709.721
-681.415
-652.93
-624.258
-595.396
-566.346
-537.11
-507.697
-478.112
-448.366
-418.469
-388.431
-358.263
-327.976
-297.581
-267.09
-236.512
-205.86
-175.143
-144.37
-113.553
-82.6988
-51.8172
-20.9158
10
0
0
0
0
0
0
0
0
0
0
-1586.11
-1586.11
-1561.71
-1524.62
-1480.21
-1431.91
-1382.13
-1332.65
-1284.66
-1238.85
-1195.53
-1154.7
-1116.2
-1079.79
-1045.16
-1012.02
-980.088
-949.106
-918.856
-889.149
-859.83
-830.771
-801.867
-773.037
-744.217
-715.358
-686.423
-657.385
-628.226
-598.934
-569.502
-539.927
-510.211
-480.356
-450.367
-420.252
-390.016
-359.668
-329.218
-298.673
-268.044
-237.338
-206.566
-175.736
-144.856
-113.936
-82.9828
-52.0047
-21.0089
10
0
0
0
0
0
0
0
0
0
0
-1738.81
-1738.81
-1707.96
-1659.4
-1600.9
-1537.71
-1473.52
-1410.84
-1351.21
-1295.39
-1243.57
-1195.6
-1151.13
-1109.72
-1070.9
-1034.23
-999.328
-965.83
-933.44
-901.907
-871.022
-840.615
-810.547
-780.708
-751.009
-721.383
-691.777
-662.149
-632.47
-602.718
-572.878
-542.941
-512.901
-482.756
-452.508
-422.157
-391.71
-361.17
-330.544
-299.838
-269.06
-238.217
-207.316
-176.365
-145.371
-114.341
-83.2826
-52.2023
-21.1069
10
0
0
0
0
0
0
0
0
0
0
-1929.31
-1929.31
-1888.61
-1823.03
-1744.36
-1660.75
-1577.58
-1498.2
-1424.38
-1356.73
-1295.17
-1239.2
-1188.15
-1141.31
-1097.99
-1057.58
-1019.53
-983.386
-948.75
-915.302
-882.778
-850.96
-819.674
-788.779
-758.161
-727.732
-697.421
-667.173
-636.948
-606.712
-576.443
-546.124
-515.743
-485.293
-454.77
-424.172
-393.5
-362.756
-331.944
-301.068
-270.132
-239.143
-208.106
-177.027
-145.912
-114.766
-83.597
-52.4094
-21.2095
10
0
0
0
0
0
0
0
0